/*--------------------------------*- C++ -*----------------------------------*\
| =========                 |                                                 |
| \\      /  F ield         | OpenFOAM: The Open Source CFD Toolbox           |
|  \\    /   O peration     | Version:  2412                                  |
|   \\  /    A nd           | Website:  www.openfoam.com                      |
|    \\/     M anipulation  |                                                 |
\*---------------------------------------------------------------------------*/
FoamFile
{
    version     2.0;
    format      ascii;
    arch        "LSB;label=32;scalar=64";
    class       volScalarField;
    location    "900";
    object      p;
}
// * * * * * * * * * * * * * * * * * * * * * * * * * * * * * * * * * * * * * //

dimensions      [0 2 -2 0 0 0 0];

internalField   nonuniform List<scalar> 
8000
(
0.0508492
0.0508231
0.0507498
0.0506319
0.0504943
0.0503144
0.0501089
0.0498668
0.0496032
0.0493084
0.0489938
0.0486528
0.0482947
0.0479148
0.04752
0.0471072
0.0466816
0.0462412
0.0457899
0.0453262
0.0448532
0.0443701
0.0438789
0.0433794
0.0428732
0.04236
0.0418414
0.0413172
0.0407886
0.0402558
0.0397197
0.0391806
0.0386395
0.0380967
0.0375531
0.0370091
0.0364657
0.0359233
0.0353828
0.034845
0.0343104
0.03378
0.0332544
0.0327344
0.0322208
0.0317143
0.0312156
0.0307254
0.0302442
0.0297728
0.0293115
0.0288609
0.0284214
0.0279933
0.0275768
0.0271722
0.0267793
0.0263985
0.0260293
0.0256719
0.0253259
0.0249911
0.0246671
0.0243536
0.02405
0.0237561
0.0234711
0.0231947
0.0229262
0.0226653
0.0224112
0.0221637
0.021922
0.0216859
0.0214545
0.0212278
0.021005
0.0207862
0.0205704
0.0203578
0.0201477
0.0199403
0.0197347
0.0195313
0.0193293
0.0191291
0.01893
0.0187323
0.0185355
0.0183398
0.0181448
0.0179508
0.0177574
0.0175648
0.0173727
0.0171814
0.0169903
0.0168002
0.0166102
0.0164211
0.0162322
0.0160441
0.0158562
0.0156691
0.0154822
0.0152961
0.0151102
0.0149251
0.0147403
0.0145562
0.0143723
0.0141892
0.0140063
0.0138243
0.0136424
0.0134614
0.0132805
0.0131005
0.0129206
0.0127416
0.0125628
0.012385
0.0122072
0.0120305
0.0118539
0.0116782
0.0115028
0.0113284
0.0111541
0.0109809
0.0108078
0.0106358
0.010464
0.0102932
0.0101225
0.00995293
0.00978346
0.00961502
0.0094467
0.0092794
0.0091122
0.00894603
0.00877993
0.00861487
0.00844985
0.00828589
0.00812195
0.00795909
0.00779622
0.00763446
0.00747265
0.00731198
0.00715123
0.00699163
0.00683193
0.00667338
0.0065147
0.00635718
0.0061995
0.00604296
0.00588625
0.00573066
0.0055749
0.00542021
0.00526536
0.00511156
0.00495757
0.00480463
0.00465148
0.00449937
0.00434702
0.00419571
0.00404413
0.00389359
0.00374274
0.00359294
0.00344277
0.00329367
0.00314417
0.00299574
0.00284687
0.00269909
0.00255084
0.00240367
0.00225604
0.00210947
0.00196243
0.00181644
0.00166997
0.00152452
0.00137858
0.0012336
0.00108813
0.000943562
0.00079846
0.000654198
0.000509352
0.000365239
0.000220273
7.47438e-05
0.0508584
0.0508323
0.0507587
0.0506404
0.0505026
0.0503222
0.0501163
0.0498737
0.0496097
0.0493144
0.0489993
0.0486579
0.0482994
0.0479191
0.0475239
0.0471108
0.0466849
0.0462442
0.0457926
0.0453287
0.0448555
0.0443721
0.0438808
0.0433811
0.0428747
0.0423614
0.0418426
0.0413182
0.0407895
0.0402565
0.0397203
0.039181
0.0386398
0.0380968
0.037553
0.0370089
0.0364652
0.0359227
0.035382
0.034844
0.0343092
0.0337786
0.0332528
0.0327327
0.0322189
0.0317123
0.0312133
0.030723
0.0302417
0.0297701
0.0293087
0.0288581
0.0284185
0.0279903
0.0275738
0.0271691
0.0267763
0.0263954
0.0260263
0.025669
0.0253231
0.0249884
0.0246644
0.0243511
0.0240476
0.0237538
0.0234689
0.0231926
0.0229243
0.0226635
0.0224096
0.0221622
0.0219206
0.0216846
0.0214533
0.0212268
0.0210041
0.0207853
0.0205696
0.0203572
0.0201471
0.0199397
0.0197342
0.0195308
0.0193289
0.0191287
0.0189297
0.018732
0.0185352
0.0183396
0.0181446
0.0179506
0.0177572
0.0175646
0.0173725
0.0171812
0.0169902
0.0168
0.0166101
0.016421
0.0162321
0.016044
0.0158561
0.015669
0.0154821
0.015296
0.0151101
0.014925
0.0147401
0.014556
0.0143722
0.0141891
0.0140062
0.0138241
0.0136423
0.0134612
0.0132803
0.0131003
0.0129205
0.0127415
0.0125627
0.0123848
0.0122071
0.0120303
0.0118537
0.0116781
0.0115026
0.0113282
0.011154
0.0109807
0.0108077
0.0106357
0.0104638
0.010293
0.0101224
0.00995277
0.0097833
0.00961486
0.00944654
0.00927924
0.00911205
0.00894587
0.00877978
0.00861472
0.0084497
0.00828574
0.0081218
0.00795894
0.00779607
0.00763431
0.0074725
0.00731183
0.00715108
0.00699149
0.00683178
0.00667324
0.00651456
0.00635704
0.00619937
0.00604283
0.00588612
0.00573053
0.00557477
0.00542009
0.00526524
0.00511144
0.00495746
0.00480451
0.00465137
0.00449926
0.00434691
0.00419561
0.00404403
0.00389349
0.00374264
0.00359284
0.00344267
0.00329358
0.00314408
0.00299565
0.00284678
0.002699
0.00255075
0.00240359
0.00225595
0.00210939
0.00196235
0.00181636
0.0016699
0.00152444
0.00137851
0.00123354
0.00108807
0.000943509
0.000798415
0.00065416
0.000509323
0.00036522
0.000220275
7.47508e-05
0.0508767
0.0508507
0.0507764
0.0506576
0.0505192
0.050338
0.0501311
0.0498877
0.0496226
0.0493264
0.0490104
0.0486681
0.0483087
0.0479276
0.0475317
0.0471179
0.0466914
0.0462501
0.045798
0.0453336
0.04486
0.0443762
0.0438845
0.0433844
0.0428777
0.042364
0.0418449
0.0413202
0.0407912
0.0402579
0.0397214
0.0391819
0.0386403
0.038097
0.0375528
0.0370084
0.0364644
0.0359215
0.0353805
0.034842
0.0343069
0.0337759
0.0332498
0.0327293
0.0322151
0.0317081
0.0312089
0.0307182
0.0302366
0.0297648
0.0293032
0.0288524
0.0284126
0.0279844
0.0275677
0.027163
0.0267702
0.0263894
0.0260204
0.0256632
0.0253174
0.0249829
0.0246591
0.024346
0.0240427
0.0237492
0.0234645
0.0231886
0.0229205
0.02266
0.0224063
0.0221592
0.0219178
0.021682
0.021451
0.0212247
0.0210022
0.0207836
0.0205681
0.0203558
0.0201459
0.0199386
0.0197332
0.0195299
0.0193281
0.019128
0.018929
0.0187314
0.0185347
0.0183391
0.0181442
0.0179502
0.0177568
0.0175643
0.0173722
0.0171809
0.0169899
0.0167997
0.0166098
0.0164207
0.0162318
0.0160437
0.0158558
0.0156687
0.0154818
0.0152957
0.0151098
0.0149247
0.0147398
0.0145557
0.0143719
0.0141888
0.0140059
0.0138238
0.013642
0.0134609
0.01328
0.0131
0.0129202
0.0127412
0.0125624
0.0123845
0.0122068
0.01203
0.0118534
0.0116778
0.0115023
0.0113279
0.0111536
0.0109804
0.0108073
0.0106353
0.0104635
0.0102927
0.0101221
0.00995244
0.00978299
0.00961454
0.00944623
0.00927893
0.00911175
0.00894557
0.00877948
0.00861441
0.0084494
0.00828544
0.00812151
0.00795865
0.00779578
0.00763402
0.00747221
0.00731154
0.00715079
0.0069912
0.0068315
0.00667296
0.00651429
0.00635677
0.0061991
0.00604256
0.00588586
0.00573028
0.00557452
0.00541984
0.00526499
0.0051112
0.00495722
0.00480428
0.00465114
0.00449903
0.0043467
0.00419539
0.00404382
0.00389328
0.00374244
0.00359264
0.00344248
0.00329339
0.00314389
0.00299547
0.0028466
0.00269882
0.00255058
0.00240342
0.00225578
0.00210922
0.00196219
0.0018162
0.00166974
0.0015243
0.00137837
0.00123341
0.00108795
0.000943404
0.000798323
0.000654082
0.000509263
0.000365176
0.000220258
7.47507e-05
0.0509042
0.0508782
0.0508031
0.0506834
0.0505442
0.0503618
0.0501534
0.0499085
0.0496421
0.0493444
0.049027
0.0486834
0.0483226
0.0479404
0.0475434
0.0471286
0.0467011
0.046259
0.0458061
0.045341
0.0448667
0.0443823
0.04389
0.0433894
0.0428822
0.042368
0.0418485
0.0413233
0.0407939
0.0402601
0.0397231
0.0391831
0.038641
0.0380972
0.0375526
0.0370076
0.0364631
0.0359197
0.0353781
0.0348391
0.0343034
0.0337719
0.0332452
0.0327241
0.0322094
0.0317019
0.0312022
0.030711
0.030229
0.0297568
0.0292949
0.0288438
0.0284038
0.0279754
0.0275586
0.0271539
0.0267611
0.0263804
0.0260114
0.0256544
0.0253088
0.0249746
0.0246512
0.0243383
0.0240355
0.0237422
0.023458
0.0231824
0.0229148
0.0226547
0.0224014
0.0221547
0.0219137
0.0216782
0.0214475
0.0212215
0.0209993
0.020781
0.0205658
0.0203537
0.020144
0.019937
0.0197317
0.0195286
0.0193269
0.0191269
0.0189281
0.0187305
0.0185339
0.0183384
0.0181435
0.0179496
0.0177563
0.0175638
0.0173717
0.0171804
0.0169894
0.0167993
0.0166094
0.0164203
0.0162314
0.0160433
0.0158554
0.0156683
0.0154814
0.0152953
0.0151094
0.0149243
0.0147394
0.0145553
0.0143714
0.0141884
0.0140055
0.0138234
0.0136415
0.0134605
0.0132796
0.0130996
0.0129197
0.0127408
0.0125619
0.012384
0.0122063
0.0120295
0.0118529
0.0116773
0.0115018
0.0113274
0.0111531
0.0109799
0.0108068
0.0106348
0.010463
0.0102922
0.0101216
0.00995196
0.00978251
0.00961407
0.00944577
0.00927847
0.00911129
0.00894512
0.00877903
0.00861396
0.00844896
0.008285
0.00812106
0.0079582
0.00779533
0.00763357
0.00747177
0.0073111
0.00715036
0.00699077
0.00683107
0.00667254
0.00651387
0.00635636
0.00619869
0.00604217
0.00588548
0.00572989
0.00557414
0.00541947
0.00526463
0.00511084
0.00495687
0.00480393
0.0046508
0.0044987
0.00434637
0.00419507
0.0040435
0.00389298
0.00374214
0.00359235
0.00344219
0.00329311
0.00314361
0.0029952
0.00284633
0.00269856
0.00255032
0.00240316
0.00225553
0.00210897
0.00196194
0.00181596
0.00166951
0.00152408
0.00137816
0.00123322
0.00108778
0.000943246
0.000798185
0.000653967
0.000509171
0.000365108
0.000220217
7.47338e-05
0.0509411
0.050915
0.0508387
0.0507179
0.0505775
0.0503934
0.0501832
0.0499364
0.049668
0.0493685
0.0490491
0.0487037
0.0483412
0.0479575
0.0475589
0.0471428
0.046714
0.0462709
0.0458168
0.0453508
0.0448756
0.0443904
0.0438974
0.0433961
0.0428882
0.0423734
0.0418532
0.0413274
0.0407973
0.0402629
0.0397254
0.0391847
0.038642
0.0380976
0.0375523
0.0370066
0.0364614
0.0359173
0.0353749
0.0348352
0.0342988
0.0337665
0.033239
0.0327173
0.0322018
0.0316936
0.0311932
0.0307015
0.0302189
0.0297462
0.0292838
0.0288323
0.028392
0.0279634
0.0275465
0.0271417
0.0267489
0.0263683
0.0259995
0.0256427
0.0252974
0.0249635
0.0246405
0.0243281
0.0240258
0.023733
0.0234494
0.0231743
0.0229072
0.0226476
0.0223949
0.0221486
0.0219081
0.0216732
0.0214429
0.0212173
0.0209955
0.0207776
0.0205627
0.020351
0.0201416
0.0199347
0.0197298
0.0195268
0.0193254
0.0191255
0.0189268
0.0187294
0.0185329
0.0183374
0.0181427
0.0179488
0.0177555
0.0175631
0.017371
0.0171798
0.0169888
0.0167987
0.0166088
0.0164197
0.0162308
0.0160427
0.0158548
0.0156677
0.0154808
0.0152947
0.0151088
0.0149237
0.0147388
0.0145548
0.0143709
0.0141878
0.0140049
0.0138229
0.013641
0.0134599
0.013279
0.013099
0.0129191
0.0127402
0.0125613
0.0123834
0.0122057
0.0120289
0.0118523
0.0116766
0.0115012
0.0113267
0.0111525
0.0109792
0.0108062
0.0106342
0.0104623
0.0102915
0.0101209
0.00995132
0.00978188
0.00961344
0.00944515
0.00927786
0.00911068
0.00894451
0.00877843
0.00861336
0.00844836
0.0082844
0.00812047
0.00795761
0.00779474
0.00763298
0.00747118
0.00731052
0.00714978
0.0069902
0.00683051
0.00667198
0.00651332
0.00635581
0.00619816
0.00604164
0.00588496
0.00572938
0.00557364
0.00541898
0.00526414
0.00511036
0.0049564
0.00480347
0.00465035
0.00449825
0.00434593
0.00419464
0.00404308
0.00389256
0.00374173
0.00359195
0.00344181
0.00329273
0.00314324
0.00299483
0.00284598
0.0026982
0.00254997
0.00240281
0.00225519
0.00210863
0.00196161
0.00181564
0.0016692
0.00152378
0.00137788
0.00123296
0.00108754
0.000943034
0.000798
0.000653812
0.000509045
0.000365013
0.000220148
7.46978e-05
0.0509873
0.0509612
0.0508834
0.0507611
0.0506193
0.0504331
0.0502204
0.0499712
0.0497004
0.0493985
0.0490767
0.0487291
0.0483644
0.0479787
0.0475782
0.0471605
0.0467302
0.0462856
0.0458302
0.0453631
0.0448867
0.0444006
0.0439066
0.0434044
0.0428957
0.0423801
0.0418591
0.0413325
0.0408017
0.0402665
0.0397282
0.0391868
0.0386433
0.038098
0.0375519
0.0370054
0.0364592
0.0359142
0.035371
0.0348303
0.034293
0.0337597
0.0332313
0.0327086
0.0321923
0.0316832
0.031182
0.0306895
0.0302062
0.0297329
0.0292699
0.028818
0.0283773
0.0279484
0.0275313
0.0271264
0.0267336
0.0263531
0.0259846
0.0256281
0.0252832
0.0249497
0.0246272
0.0243154
0.0240136
0.0237215
0.0234385
0.0231641
0.0228977
0.0226388
0.0223867
0.0221411
0.0219012
0.0216669
0.0214372
0.0212121
0.0209908
0.0207734
0.0205589
0.0203475
0.0201385
0.019932
0.0197273
0.0195246
0.0193234
0.0191237
0.0189252
0.018728
0.0185316
0.0183362
0.0181416
0.0179478
0.0177546
0.0175622
0.0173702
0.017179
0.016988
0.0167979
0.016608
0.016419
0.0162301
0.016042
0.0158541
0.015667
0.0154801
0.015294
0.0151081
0.014923
0.0147381
0.014554
0.0143702
0.0141871
0.0140042
0.0138221
0.0136403
0.0134592
0.0132783
0.0130983
0.0129184
0.0127394
0.0125606
0.0123827
0.0122049
0.0120281
0.0118515
0.0116758
0.0115004
0.0113259
0.0111516
0.0109784
0.0108054
0.0106333
0.0104615
0.0102907
0.0101201
0.00995051
0.00978108
0.00961266
0.00944437
0.00927709
0.00910992
0.00894375
0.00877768
0.00861261
0.00844762
0.00828365
0.00811973
0.00795686
0.00779401
0.00763224
0.00747045
0.00730979
0.00714906
0.00698948
0.0068298
0.00667128
0.00651263
0.00635513
0.00619749
0.00604098
0.00588431
0.00572874
0.00557301
0.00541836
0.00526354
0.00510976
0.00495581
0.00480289
0.00464978
0.00449769
0.00434539
0.0041941
0.00404256
0.00389205
0.00374123
0.00359146
0.00344133
0.00329226
0.00314278
0.00299438
0.00284553
0.00269776
0.00254953
0.00240238
0.00225476
0.00210822
0.0019612
0.00181524
0.00166881
0.00152341
0.00137753
0.00123263
0.00108724
0.00094277
0.000797769
0.000653619
0.000508889
0.000364895
0.000220062
7.46524e-05
0.0510431
0.0510169
0.0509372
0.0508133
0.0506696
0.0504808
0.0502652
0.0500131
0.0497392
0.0494345
0.0491097
0.0487595
0.0483922
0.0480041
0.0476014
0.0471817
0.0467494
0.0463032
0.0458463
0.0453777
0.0449001
0.0444127
0.0439176
0.0434143
0.0429046
0.042388
0.0418662
0.0413387
0.0408069
0.0402709
0.0397316
0.0391892
0.0386448
0.0380985
0.0375514
0.0370039
0.0364567
0.0359106
0.0353662
0.0348245
0.034286
0.0337516
0.0332221
0.0326983
0.0321809
0.0316708
0.0311686
0.0306751
0.0301909
0.0297168
0.0292532
0.0288007
0.0283595
0.0279303
0.027513
0.027108
0.0267152
0.0263349
0.0259666
0.0256104
0.025266
0.0249331
0.0246112
0.0243
0.023999
0.0237077
0.0234255
0.0231519
0.0228863
0.0226282
0.0223769
0.0221321
0.0218929
0.0216593
0.0214303
0.0212059
0.0209852
0.0207683
0.0205543
0.0203434
0.0201348
0.0199287
0.0197244
0.019522
0.0193211
0.0191216
0.0189234
0.0187262
0.0185301
0.0183348
0.0181403
0.0179466
0.0177535
0.0175611
0.0173692
0.017178
0.0169871
0.0167971
0.0166072
0.0164181
0.0162292
0.0160412
0.0158533
0.0156662
0.0154793
0.0152932
0.0151073
0.0149222
0.0147373
0.0145532
0.0143693
0.0141862
0.0140034
0.0138213
0.0136394
0.0134583
0.0132775
0.0130974
0.0129175
0.0127385
0.0125597
0.0123817
0.012204
0.0120271
0.0118505
0.0116748
0.0114994
0.0113249
0.0111506
0.0109774
0.0108044
0.0106323
0.0104605
0.0102897
0.0101191
0.00994955
0.00978013
0.00961171
0.00944344
0.00927616
0.00910901
0.00894284
0.00877678
0.00861171
0.00844673
0.00828276
0.00811884
0.00795597
0.00779312
0.00763136
0.00746957
0.00730891
0.00714819
0.00698861
0.00682894
0.00667043
0.00651179
0.00635431
0.00619668
0.00604018
0.00588353
0.00572798
0.00557226
0.00541762
0.00526281
0.00510904
0.00495511
0.00480219
0.0046491
0.00449702
0.00434473
0.00419345
0.00404193
0.00389143
0.00374063
0.00359087
0.00344076
0.0032917
0.00314223
0.00299383
0.00284499
0.00269723
0.002549
0.00240186
0.00225424
0.00210771
0.0019607
0.00181476
0.00166834
0.00152296
0.00137711
0.00123224
0.00108688
0.000942449
0.000797488
0.000653385
0.000508699
0.000364752
0.00021996
7.46023e-05
0.0511085
0.0510822
0.0510003
0.0508744
0.0507286
0.0505366
0.0503175
0.0500619
0.0497846
0.0494764
0.0491482
0.0487948
0.0484244
0.0480336
0.0476283
0.0472063
0.0467718
0.0463236
0.0458649
0.0453947
0.0449155
0.0444268
0.0439304
0.0434259
0.042915
0.0423973
0.0418744
0.0413458
0.0408131
0.0402759
0.0397356
0.0391921
0.0386466
0.0380992
0.0375509
0.0370021
0.0364537
0.0359064
0.0353607
0.0348177
0.0342778
0.0337422
0.0332113
0.0326862
0.0321675
0.0316562
0.0311528
0.0306582
0.0301731
0.029698
0.0292336
0.0287804
0.0283387
0.0279091
0.0274915
0.0270864
0.0266937
0.0263135
0.0259455
0.0255898
0.0252459
0.0249136
0.0245925
0.0242821
0.0239819
0.0236915
0.0234103
0.0231376
0.022873
0.0226158
0.0223655
0.0221215
0.0218833
0.0216505
0.0214223
0.0211986
0.0209786
0.0207624
0.020549
0.0203387
0.0201306
0.0199249
0.019721
0.019519
0.0193184
0.0191192
0.0189212
0.0187243
0.0185283
0.0183332
0.0181388
0.0179452
0.0177522
0.0175599
0.017368
0.0171769
0.0169861
0.016796
0.0166062
0.0164171
0.0162282
0.0160402
0.0158523
0.0156652
0.0154783
0.0152922
0.0151063
0.0149212
0.0147363
0.0145522
0.0143683
0.0141852
0.0140024
0.0138203
0.0136384
0.0134574
0.0132765
0.0130964
0.0129165
0.0127375
0.0125586
0.0123807
0.0122029
0.012026
0.0118494
0.0116737
0.0114982
0.0113237
0.0111495
0.0109762
0.0108032
0.0106312
0.0104594
0.0102886
0.010118
0.00994842
0.00977902
0.00961061
0.00944236
0.00927508
0.00910794
0.00894178
0.00877573
0.00861066
0.00844569
0.00828171
0.0081178
0.00795493
0.00779209
0.00763032
0.00746854
0.00730788
0.00714717
0.0069876
0.00682795
0.00666945
0.00651083
0.00635335
0.00619574
0.00603926
0.00588262
0.00572708
0.00557139
0.00541675
0.00526196
0.00510821
0.00495429
0.00480138
0.00464831
0.00449624
0.00434397
0.0041927
0.0040412
0.00389071
0.00373993
0.00359019
0.00344009
0.00329104
0.00314159
0.0029932
0.00284437
0.00269662
0.00254839
0.00240126
0.00225365
0.00210712
0.00196012
0.0018142
0.0016678
0.00152244
0.00137661
0.00123178
0.00108646
0.000942074
0.000797162
0.000653113
0.000508482
0.000364591
0.00021985
7.45499e-05
0.0511837
0.0511572
0.0510728
0.0509446
0.0507963
0.0506006
0.0503773
0.0501178
0.0498363
0.0495242
0.0491921
0.0488351
0.0484611
0.0480672
0.0476588
0.0472342
0.0467972
0.0463469
0.0458861
0.0454141
0.0449332
0.0444429
0.043945
0.0434391
0.0429269
0.0424079
0.0418838
0.041354
0.04082
0.0402816
0.0397401
0.0391954
0.0386486
0.0380999
0.0375503
0.0370002
0.0364503
0.0359016
0.0353544
0.0348099
0.0342685
0.0337313
0.0331989
0.0326723
0.0321522
0.0316394
0.0311347
0.0306389
0.0301526
0.0296765
0.0292112
0.0287572
0.0283149
0.0278848
0.0274669
0.0270617
0.026669
0.026289
0.0259214
0.0255662
0.0252229
0.0248913
0.024571
0.0242616
0.0239624
0.023673
0.0233929
0.0231213
0.0228578
0.0226017
0.0223524
0.0221095
0.0218723
0.0216405
0.0214132
0.0211904
0.0209711
0.0207557
0.0205429
0.0203333
0.0201257
0.0199206
0.0197171
0.0195156
0.0193153
0.0191165
0.0189187
0.018722
0.0185263
0.0183313
0.0181372
0.0179437
0.0177508
0.0175586
0.0173667
0.0171757
0.0169849
0.0167949
0.016605
0.016416
0.0162271
0.016039
0.0158511
0.015664
0.0154772
0.015291
0.0151052
0.01492
0.0147352
0.014551
0.0143672
0.0141841
0.0140013
0.0138192
0.0136373
0.0134562
0.0132753
0.0130952
0.0129154
0.0127363
0.0125574
0.0123794
0.0122017
0.0120248
0.0118481
0.0116724
0.0114969
0.0113224
0.0111482
0.0109749
0.0108019
0.0106298
0.0104581
0.0102873
0.0101167
0.00994713
0.00977775
0.00960935
0.00944111
0.00927385
0.00910673
0.00894057
0.00877453
0.00860946
0.00844449
0.00828052
0.00811662
0.00795374
0.0077909
0.00762913
0.00746737
0.00730671
0.00714601
0.00698644
0.00682681
0.00666831
0.00650971
0.00635226
0.00619467
0.0060382
0.00588158
0.00572606
0.00557038
0.00541576
0.00526099
0.00510724
0.00495335
0.00480045
0.0046474
0.00449534
0.00434309
0.00419184
0.00404036
0.00388988
0.00373913
0.0035894
0.00343932
0.00329029
0.00314085
0.00299247
0.00284365
0.00269591
0.00254769
0.00240057
0.00225296
0.00210645
0.00195945
0.00181355
0.00166716
0.00152184
0.00137604
0.00123125
0.00108597
0.000941641
0.000796784
0.000652797
0.00050823
0.000364406
0.000219726
7.44948e-05
0.0512691
0.0512421
0.0511548
0.0510241
0.0508728
0.0506728
0.0504449
0.0501807
0.0498945
0.049578
0.0492413
0.0488802
0.0485023
0.0481048
0.047693
0.0472655
0.0468257
0.0463729
0.0459097
0.0454357
0.0449529
0.0444608
0.0439613
0.0434539
0.0429402
0.0424198
0.0418943
0.0413631
0.0408279
0.0402881
0.0397453
0.0391992
0.0386509
0.0381008
0.0375496
0.036998
0.0364466
0.0358962
0.0353474
0.0348011
0.0342581
0.0337191
0.033185
0.0326567
0.0321349
0.0316205
0.0311143
0.030617
0.0301294
0.0296521
0.0291858
0.0287309
0.0282879
0.0278573
0.0274391
0.0270337
0.0266411
0.0262613
0.0258941
0.0255394
0.0251969
0.0248662
0.0245468
0.0242384
0.0239404
0.0236522
0.0233733
0.0231029
0.0228407
0.0225858
0.0223378
0.0220961
0.02186
0.0216292
0.0214029
0.0211812
0.0209628
0.0207482
0.0205362
0.0203273
0.0201203
0.0199158
0.0197129
0.0195117
0.0193119
0.0191134
0.018916
0.0187195
0.0185241
0.0183293
0.0181353
0.0179419
0.0177491
0.017557
0.0173653
0.0171743
0.0169835
0.0167936
0.0166037
0.0164147
0.0162258
0.0160378
0.0158499
0.0156628
0.0154759
0.0152897
0.0151039
0.0149187
0.0147339
0.0145498
0.0143659
0.0141828
0.014
0.0138179
0.013636
0.0134549
0.013274
0.013094
0.0129141
0.012735
0.0125561
0.0123781
0.0122003
0.0120234
0.0118467
0.0116709
0.0114955
0.0113209
0.0111467
0.0109734
0.0108004
0.0106283
0.0104566
0.0102858
0.0101152
0.00994568
0.00977632
0.00960794
0.00943973
0.00927247
0.00910537
0.00893921
0.00877319
0.00860812
0.00844316
0.00827918
0.00811529
0.0079524
0.00778958
0.0076278
0.00746605
0.00730538
0.0071447
0.00698515
0.00682553
0.00666705
0.00650847
0.00635103
0.00619346
0.00603701
0.00588042
0.00572491
0.00556926
0.00541465
0.00525991
0.00510617
0.0049523
0.00479941
0.00464638
0.00449433
0.00434211
0.00419087
0.00403942
0.00388896
0.00373824
0.00358852
0.00343847
0.00328945
0.00314003
0.00299167
0.00284285
0.00269512
0.00254691
0.00239979
0.00225218
0.00210569
0.0019587
0.00181282
0.00166645
0.00152116
0.00137539
0.00123065
0.00108542
0.000941152
0.000796361
0.000652445
0.000507954
0.000364207
0.000219606
7.4448e-05
0.0513649
0.051337
0.0512467
0.0511132
0.0509582
0.0507534
0.0505201
0.0502506
0.0499592
0.0496376
0.0492959
0.0489302
0.0485477
0.0481463
0.0477308
0.0473
0.0468571
0.0464016
0.0459359
0.0454596
0.0449746
0.0444807
0.0439793
0.0434702
0.042955
0.042433
0.041906
0.0413733
0.0408366
0.0402954
0.039751
0.0392033
0.0386536
0.0381018
0.037549
0.0369956
0.0364424
0.0358902
0.0353395
0.0347914
0.0342464
0.0337056
0.0331695
0.0326393
0.0321157
0.0315995
0.0310916
0.0305927
0.0301036
0.0296249
0.0291574
0.0287016
0.0282578
0.0278266
0.027408
0.0270025
0.0266099
0.0262304
0.0258636
0.0255096
0.0251679
0.0248381
0.0245199
0.0242126
0.0239159
0.023629
0.0233515
0.0230825
0.0228217
0.0225682
0.0223215
0.0220811
0.0218463
0.0216168
0.0213916
0.0211709
0.0209536
0.0207399
0.0205288
0.0203207
0.0201144
0.0199105
0.0197081
0.0195075
0.0193082
0.01911
0.018913
0.0187168
0.0185216
0.018327
0.0181332
0.01794
0.0177474
0.0175553
0.0173637
0.0171728
0.016982
0.0167921
0.0166023
0.0164133
0.0162244
0.0160364
0.0158485
0.0156614
0.0154745
0.0152883
0.0151025
0.0149173
0.0147325
0.0145483
0.0143645
0.0141814
0.0139986
0.0138165
0.0136346
0.0134535
0.0132726
0.0130925
0.0129126
0.0127335
0.0125546
0.0123765
0.0121987
0.0120218
0.0118451
0.0116693
0.0114938
0.0113192
0.011145
0.0109717
0.0107987
0.0106266
0.0104549
0.0102841
0.0101136
0.00994407
0.00977473
0.00960636
0.00943817
0.00927093
0.00910385
0.00893769
0.00877169
0.00860662
0.00844167
0.00827768
0.0081138
0.00795091
0.00778809
0.00762631
0.00746457
0.00730391
0.00714324
0.00698369
0.00682409
0.00666563
0.00650708
0.00634965
0.00619211
0.00603568
0.00587912
0.00572363
0.005568
0.00541341
0.00525869
0.00510497
0.00495112
0.00479824
0.00464524
0.0044932
0.00434101
0.00418979
0.00403837
0.00388793
0.00373723
0.00358753
0.00343751
0.00328851
0.00313911
0.00299076
0.00284196
0.00269424
0.00254603
0.00239892
0.00225132
0.00210484
0.00195786
0.001812
0.00166565
0.0015204
0.00137467
0.00122998
0.0010848
0.000940599
0.000795881
0.000652044
0.000507642
0.000363983
0.000219483
7.44104e-05
0.0514717
0.0514418
0.0513487
0.051212
0.0510528
0.0508424
0.050603
0.0503276
0.0500302
0.049703
0.0493556
0.0489848
0.0485974
0.0481917
0.047772
0.0473376
0.0468913
0.0464329
0.0459644
0.0454857
0.0449984
0.0445024
0.0439991
0.0434881
0.0429711
0.0424475
0.0419188
0.0413845
0.0408462
0.0403033
0.0397574
0.039208
0.0386565
0.0381029
0.0375483
0.0369931
0.0364379
0.0358837
0.0353309
0.0347808
0.0342336
0.0336907
0.0331525
0.0326202
0.0320945
0.0315763
0.0310664
0.0305657
0.030075
0.0295949
0.029126
0.0286691
0.0282245
0.0277926
0.0273736
0.0269679
0.0265754
0.0261962
0.0258299
0.0254767
0.0251358
0.0248072
0.0244901
0.0241842
0.0238889
0.0236035
0.0233275
0.02306
0.0228008
0.0225488
0.0223037
0.0220647
0.0218313
0.0216032
0.0213793
0.0211598
0.0209435
0.0207309
0.0205206
0.0203134
0.0201079
0.0199048
0.019703
0.019503
0.0193041
0.0191063
0.0189098
0.0187138
0.018519
0.0183245
0.018131
0.0179379
0.0177454
0.0175535
0.0173619
0.0171711
0.0169804
0.0167905
0.0166007
0.0164118
0.0162229
0.0160349
0.0158469
0.0156598
0.0154729
0.0152868
0.0151009
0.0149157
0.0147309
0.0145468
0.014363
0.0141798
0.013997
0.0138149
0.0136331
0.013452
0.0132711
0.0130909
0.012911
0.0127319
0.012553
0.0123749
0.0121971
0.01202
0.0118433
0.0116675
0.011492
0.0113174
0.0111431
0.0109698
0.0107968
0.0106248
0.0104531
0.0102823
0.0101118
0.0099423
0.00977299
0.00960464
0.00943648
0.00926925
0.00910219
0.00893604
0.00877006
0.00860498
0.00844005
0.00827605
0.00811218
0.00794927
0.00778647
0.00762468
0.00746295
0.00730229
0.00714165
0.0069821
0.00682253
0.00666408
0.00650555
0.00634815
0.00619064
0.00603423
0.0058777
0.00572223
0.00556664
0.00541206
0.00525737
0.00510365
0.00494984
0.00479697
0.004644
0.00449197
0.00433981
0.0041886
0.00403722
0.0038868
0.00373614
0.00358646
0.00343647
0.00328749
0.00313811
0.00298978
0.00284099
0.00269328
0.00254507
0.00239798
0.00225037
0.0021039
0.00195693
0.00181109
0.00166477
0.00151955
0.00137386
0.00122923
0.00108412
0.000939989
0.000795355
0.000651606
0.000507306
0.000363745
0.000219365
7.43829e-05
0.0515898
0.0515567
0.0514611
0.0513209
0.0511566
0.0509399
0.0506937
0.0504116
0.0501075
0.0497741
0.0494205
0.0490441
0.0486512
0.0482408
0.0478166
0.0473784
0.0469284
0.0464668
0.0459953
0.0455139
0.0450242
0.0445259
0.0440205
0.0435076
0.0429887
0.0424632
0.0419328
0.0413967
0.0408567
0.040312
0.0397643
0.0392131
0.0386597
0.0381042
0.0375475
0.0369903
0.036433
0.0358766
0.0353216
0.0347691
0.0342196
0.0336744
0.0331338
0.0325992
0.0320712
0.0315508
0.0310389
0.0305362
0.0300436
0.0295618
0.0290916
0.0286334
0.0281878
0.0277552
0.0273359
0.02693
0.0265375
0.0261587
0.025793
0.0254405
0.0251007
0.0247732
0.0244575
0.0241531
0.0238594
0.0235755
0.0233013
0.0230355
0.022778
0.0225277
0.0222843
0.0220469
0.0218151
0.0215884
0.0213658
0.0211477
0.0209326
0.0207212
0.0205119
0.0203057
0.0201009
0.0198986
0.0196975
0.019498
0.0192997
0.0191024
0.0189063
0.0187106
0.0185161
0.0183219
0.0181286
0.0179356
0.0177434
0.0175515
0.0173601
0.0171693
0.0169786
0.0167888
0.016599
0.0164101
0.0162212
0.0160332
0.0158453
0.0156581
0.0154712
0.015285
0.0150992
0.014914
0.0147292
0.014545
0.0143613
0.0141781
0.0139953
0.0138132
0.0136314
0.0134503
0.0132694
0.0130892
0.0129093
0.0127301
0.0125512
0.012373
0.0121952
0.0120181
0.0118414
0.0116655
0.01149
0.0113154
0.0111411
0.0109678
0.0107948
0.0106228
0.0104511
0.0102803
0.0101099
0.00994035
0.00977107
0.00960275
0.00943461
0.0092674
0.00910037
0.00893422
0.00876826
0.00860317
0.00843827
0.00827425
0.0081104
0.00794747
0.00778469
0.00762288
0.00746118
0.0073005
0.00713988
0.00698034
0.0068208
0.00666236
0.00650388
0.00634649
0.00618902
0.00603264
0.00587614
0.00572069
0.00556513
0.00541057
0.00525591
0.00510221
0.00494842
0.00479557
0.00464263
0.00449061
0.00433849
0.0041873
0.00403596
0.00388556
0.00373494
0.00358528
0.00343532
0.00328636
0.00313701
0.00298869
0.00283992
0.00269222
0.00254402
0.00239693
0.00224933
0.00210287
0.00195591
0.00181009
0.00166379
0.00151862
0.00137297
0.0012284
0.00108336
0.000939309
0.000794767
0.000651115
0.000506927
0.000363476
0.000219225
7.43477e-05
0.0517199
0.0516818
0.0515842
0.0514401
0.0512699
0.0510461
0.0507922
0.0505027
0.0501911
0.049851
0.0494904
0.0491079
0.048709
0.0482936
0.0478645
0.0474221
0.0469681
0.0465031
0.0460284
0.0455443
0.0450518
0.0445512
0.0440435
0.0435285
0.0430076
0.0424801
0.0419479
0.0414099
0.0408681
0.0403214
0.0397718
0.0392186
0.0386632
0.0381057
0.0375468
0.0369874
0.0364277
0.035869
0.0353115
0.0347566
0.0342045
0.0336567
0.0331136
0.0325764
0.0320459
0.0315231
0.0310089
0.030504
0.0300094
0.0295259
0.0290541
0.0285945
0.0281479
0.0277145
0.0272946
0.0268886
0.0264962
0.0261178
0.0257527
0.0254011
0.0250624
0.0247363
0.0244221
0.0241192
0.0238273
0.0235452
0.0232729
0.0230089
0.0227534
0.0225048
0.0222633
0.0220277
0.0217975
0.0215724
0.0213514
0.0211347
0.0209208
0.0207107
0.0205025
0.0202973
0.0200935
0.019892
0.0196916
0.0194928
0.0192951
0.0190982
0.0189026
0.0187072
0.0185131
0.0183191
0.0181261
0.0179332
0.0177412
0.0175494
0.0173581
0.0171674
0.0169767
0.016787
0.0165972
0.0164083
0.0162194
0.0160314
0.0158434
0.0156563
0.0154694
0.0152832
0.0150974
0.0149121
0.0147274
0.0145432
0.0143594
0.0141763
0.0139935
0.0138114
0.0136296
0.0134485
0.0132675
0.0130874
0.0129074
0.0127282
0.0125493
0.0123711
0.0121932
0.0120161
0.0118393
0.0116634
0.0114879
0.0113132
0.0111389
0.0109656
0.0107926
0.0106206
0.0104489
0.0102782
0.0101077
0.00993827
0.00976902
0.00960073
0.00943262
0.00926543
0.00909842
0.00893228
0.00876634
0.00860125
0.00843636
0.00827232
0.00810849
0.00794554
0.00778277
0.00762095
0.00745927
0.00729859
0.00713799
0.00697846
0.00681895
0.00666053
0.00650208
0.00634472
0.00618729
0.00603092
0.00587447
0.00571904
0.00556352
0.00540897
0.00525435
0.00510066
0.00494691
0.00479406
0.00464116
0.00448915
0.00433708
0.0041859
0.0040346
0.00388422
0.00373365
0.00358402
0.0034341
0.00328516
0.00313584
0.00298754
0.00283878
0.00269109
0.00254289
0.00239581
0.00224821
0.00210176
0.0019548
0.00180901
0.00166273
0.0015176
0.001372
0.0012275
0.00108253
0.000938571
0.00079413
0.000650586
0.00050652
0.000363191
0.000219077
7.43057e-05
0.0518624
0.0518178
0.0517183
0.05157
0.0513929
0.0511611
0.0508986
0.0506007
0.0502809
0.0499333
0.0495652
0.0491761
0.0487707
0.0483498
0.0479155
0.0474687
0.0470105
0.0465419
0.0460637
0.0455767
0.0450814
0.0445782
0.0440682
0.0435509
0.0430279
0.0424983
0.0419642
0.041424
0.0408803
0.0403316
0.03978
0.0392246
0.0386671
0.0381073
0.0375461
0.0369843
0.0364221
0.0358609
0.0353007
0.0347431
0.0341883