/*--------------------------------*- C++ -*----------------------------------*\
| =========                 |                                                 |
| \\      /  F ield         | OpenFOAM: The Open Source CFD Toolbox           |
|  \\    /   O peration     | Version:  2412                                  |
|   \\  /    A nd           | Website:  www.openfoam.com                      |
|    \\/     M anipulation  |                                                 |
\*---------------------------------------------------------------------------*/
FoamFile
{
    version     2.0;
    format      ascii;
    arch        "LSB;label=32;scalar=64";
    class       surfaceScalarField;
    location    "900";
    object      phi;
}
// * * * * * * * * * * * * * * * * * * * * * * * * * * * * * * * * * * * * * //

dimensions      [0 3 -1 0 0 0 0];

oriented        oriented;

internalField   nonuniform List<scalar> 
15760
(
2.50003e-07
-3.3481e-12
2.50018e-07
-1.48624e-11
2.5004e-07
-2.19001e-11
2.50073e-07
-3.26122e-11
2.50112e-07
-3.92692e-11
2.50161e-07
-4.92424e-11
2.50217e-07
-5.53108e-11
2.50281e-07
-6.41964e-11
2.5035e-07
-6.95332e-11
2.50428e-07
-7.72305e-11
2.50509e-07
-8.18175e-11
2.50598e-07
-8.82783e-11
2.5069e-07
-9.21501e-11
2.50787e-07
-9.74356e-11
2.50888e-07
-1.00669e-10
2.50993e-07
-1.04913e-10
2.511e-07
-1.07612e-10
2.51211e-07
-1.10992e-10
2.51325e-07
-1.13274e-10
2.51441e-07
-1.15976e-10
2.51559e-07
-1.17958e-10
2.51679e-07
-1.20151e-10
2.51801e-07
-1.21924e-10
2.51924e-07
-1.23741e-10
2.5205e-07
-1.25354e-10
2.52177e-07
-1.26882e-10
2.52305e-07
-1.28336e-10
2.52435e-07
-1.29612e-10
2.52565e-07
-1.30866e-10
2.52697e-07
-1.31887e-10
2.5283e-07
-1.32878e-10
2.52964e-07
-1.33608e-10
2.53098e-07
-1.34268e-10
2.53233e-07
-1.34658e-10
2.53368e-07
-1.3493e-10
2.53503e-07
-1.34929e-10
2.53637e-07
-1.34776e-10
2.53772e-07
-1.34346e-10
2.53905e-07
-1.3375e-10
2.54038e-07
-1.32871e-10
2.5417e-07
-1.31833e-10
2.54301e-07
-1.30506e-10
2.5443e-07
-1.29045e-10
2.54557e-07
-1.27291e-10
2.54682e-07
-1.25439e-10
2.54806e-07
-1.23301e-10
2.54927e-07
-1.21104e-10
2.55046e-07
-1.18642e-10
2.55162e-07
-1.16162e-10
2.55275e-07
-1.13451e-10
2.55386e-07
-1.10764e-10
2.55494e-07
-1.07891e-10
2.55599e-07
-1.0508e-10
2.55701e-07
-1.02135e-10
2.558e-07
-9.92911e-11
2.55897e-07
-9.63614e-11
2.5599e-07
-9.35686e-11
2.56081e-07
-9.07294e-11
2.56169e-07
-8.80611e-11
2.56254e-07
-8.53701e-11
2.56337e-07
-8.28802e-11
2.56418e-07
-8.0375e-11
2.56496e-07
-7.80943e-11
2.56572e-07
-7.57938e-11
2.56645e-07
-7.37299e-11
2.56717e-07
-7.16382e-11
2.56787e-07
-6.978e-11
2.56855e-07
-6.78911e-11
2.56921e-07
-6.62158e-11
2.56985e-07
-6.45186e-11
2.57048e-07
-6.30006e-11
2.5711e-07
-6.1481e-11
2.5717e-07
-6.00998e-11
2.57229e-07
-5.87423e-11
2.57286e-07
-5.74873e-11
2.57342e-07
-5.62758e-11
2.57398e-07
-5.51467e-11
2.57452e-07
-5.40654e-11
2.57505e-07
-5.30691e-11
2.57557e-07
-5.2104e-11
2.57608e-07
-5.12482e-11
2.57658e-07
-5.0389e-11
2.57708e-07
-4.96762e-11
2.57757e-07
-4.89173e-11
2.57805e-07
-4.83411e-11
2.57853e-07
-4.76816e-11
2.579e-07
-4.72258e-11
2.57947e-07
-4.6667e-11
2.57993e-07
-4.63092e-11
2.58039e-07
-4.58514e-11
2.58085e-07
-4.55678e-11
2.5813e-07
-4.52073e-11
2.58175e-07
-4.49777e-11
2.5822e-07
-4.47048e-11
2.58264e-07
-4.45159e-11
2.58308e-07
-4.43153e-11
2.58353e-07
-4.41608e-11
2.58397e-07
-4.40141e-11
2.5844e-07
-4.38926e-11
2.58484e-07
-4.37818e-11
2.58528e-07
-4.36939e-11
2.58572e-07
-4.36048e-11
2.58615e-07
-4.35499e-11
2.58659e-07
-4.34736e-11
2.58702e-07
-4.34486e-11
2.58745e-07
-4.33814e-11
2.58789e-07
-4.33808e-11
2.58832e-07
-4.33222e-11
2.58875e-07
-4.33386e-11
2.58919e-07
-4.32891e-11
2.58962e-07
-4.33151e-11
2.59005e-07
-4.32737e-11
2.59049e-07
-4.33025e-11
2.59092e-07
-4.32661e-11
2.59135e-07
-4.32918e-11
2.59178e-07
-4.32553e-11
2.59222e-07
-4.32729e-11
2.59265e-07
-4.32307e-11
2.59308e-07
-4.32355e-11
2.59351e-07
-4.31828e-11
2.59394e-07
-4.31705e-11
2.59438e-07
-4.31044e-11
2.59481e-07
-4.30711e-11
2.59524e-07
-4.29908e-11
2.59567e-07
-4.29338e-11
2.59609e-07
-4.28396e-11
2.59652e-07
-4.27576e-11
2.59695e-07
-4.26501e-11
2.59737e-07
-4.25438e-11
2.5978e-07
-4.24226e-11
2.59822e-07
-4.22943e-11
2.59864e-07
-4.21575e-11
2.59906e-07
-4.20111e-11
2.59948e-07
-4.18555e-11
2.5999e-07
-4.16951e-11
2.60031e-07
-4.15179e-11
2.60073e-07
-4.13473e-11
2.60114e-07
-4.11471e-11
2.60155e-07
-4.09691e-11
2.60196e-07
-4.07478e-11
2.60236e-07
-4.05639e-11
2.60276e-07
-4.0327e-11
2.60317e-07
-4.01382e-11
2.60356e-07
-3.9895e-11
2.60396e-07
-3.97022e-11
2.60436e-07
-3.94644e-11
2.60475e-07
-3.92691e-11
2.60514e-07
-3.90494e-11
2.60553e-07
-3.88544e-11
2.60591e-07
-3.86638e-11
2.6063e-07
-3.84732e-11
2.60668e-07
-3.83198e-11
2.60706e-07
-3.81386e-11
2.60744e-07
-3.80255e-11
2.60782e-07
-3.78587e-11
2.6082e-07
-3.77841e-11
2.60858e-07
-3.76361e-11
2.60895e-07
-3.75932e-11
2.60933e-07
-3.74669e-11
2.6097e-07
-3.74452e-11
2.61008e-07
-3.73419e-11
2.61045e-07
-3.733e-11
2.61082e-07
-3.72488e-11
2.61119e-07
-3.72361e-11
2.61157e-07
-3.71751e-11
2.61194e-07
-3.71544e-11
2.61231e-07
-3.71101e-11
2.61268e-07
-3.70784e-11
2.61305e-07
-3.70469e-11
2.61342e-07
-3.70056e-11
2.61379e-07
-3.6982e-11
2.61416e-07
-3.69354e-11
2.61453e-07
-3.69142e-11
2.6149e-07
-3.68681e-11
2.61527e-07
-3.68432e-11
2.61563e-07
-3.68021e-11
2.616e-07
-3.67677e-11
2.61637e-07
-3.67339e-11
2.61673e-07
-3.66853e-11
2.6171e-07
-3.66588e-11
2.61747e-07
-3.65939e-11
2.61783e-07
-3.65725e-11
2.6182e-07
-3.6493e-11
2.61856e-07
-3.64742e-11
2.61893e-07
-3.63858e-11
2.61929e-07
-3.6368e-11
2.61965e-07
-3.62797e-11
2.62002e-07
-3.6263e-11
2.62038e-07
-3.61856e-11
2.62074e-07
-3.61715e-11
2.6211e-07
-3.61149e-11
2.62146e-07
-3.61054e-11
2.62182e-07
-3.60769e-11
2.62218e-07
-3.60737e-11
2.62254e-07
-3.60762e-11
2.6229e-07
-3.60799e-11
2.62327e-07
-3.61115e-11
2.62363e-07
-3.61229e-11
2.62399e-07
-3.61823e-11
-3.62132e-11
2.50003e-07
-6.78838e-12
2.50018e-07
-2.9761e-11
2.5004e-07
-4.3817e-11
2.50073e-07
-6.53527e-11
2.50112e-07
-7.85961e-11
2.50162e-07
-9.86313e-11
2.50217e-07
-1.10701e-10
2.50281e-07
-1.28542e-10
2.50351e-07
-1.39152e-10
2.50428e-07
-1.54599e-10
2.5051e-07
-1.63715e-10
2.50599e-07
-1.76675e-10
2.50691e-07
-1.84368e-10
2.50789e-07
-1.94966e-10
2.50889e-07
-2.01394e-10
2.50994e-07
-2.09902e-10
2.51102e-07
-2.15272e-10
2.51213e-07
-2.22046e-10
2.51326e-07
-2.26593e-10
2.51442e-07
-2.32009e-10
2.5156e-07
-2.35964e-10
2.5168e-07
-2.40361e-10
2.51802e-07
-2.43905e-10
2.51926e-07
-2.47549e-10
2.52052e-07
-2.50776e-10
2.52179e-07
-2.53839e-10
2.52307e-07
-2.5675e-10
2.52437e-07
-2.59307e-10
2.52568e-07
-2.61817e-10
2.527e-07
-2.63861e-10
2.52833e-07
-2.65842e-10
2.52966e-07
-2.67303e-10
2.53101e-07
-2.6862e-10
2.53235e-07
-2.69398e-10
2.5337e-07
-2.69937e-10
2.53505e-07
-2.69933e-10
2.5364e-07
-2.69619e-10
2.53775e-07
-2.68756e-10
2.53909e-07
-2.67556e-10
2.54041e-07
-2.65792e-10
2.54173e-07
-2.63709e-10
2.54304e-07
-2.61046e-10
2.54433e-07
-2.58114e-10
2.5456e-07
-2.54596e-10
2.54686e-07
-2.50879e-10
2.54809e-07
-2.4659e-10
2.5493e-07
-2.42181e-10
2.55049e-07
-2.3724e-10
2.55165e-07
-2.32261e-10
2.55278e-07
-2.2682e-10
2.55389e-07
-2.21422e-10
2.55497e-07
-2.15653e-10
2.55601e-07
-2.10008e-10
2.55703e-07
-2.04094e-10
2.55803e-07
-1.98382e-10
2.55899e-07
-1.92501e-10
2.55992e-07
-1.86895e-10
2.56082e-07
-1.81199e-10
2.5617e-07
-1.75848e-10
2.56255e-07
-1.70456e-10
2.56338e-07
-1.6547e-10
2.56418e-07
-1.60458e-10
2.56496e-07
-1.55901e-10
2.56571e-07
-1.51308e-10
2.56645e-07
-1.47196e-10
2.56716e-07
-1.4303e-10
2.56786e-07
-1.39338e-10
2.56853e-07
-1.35587e-10
2.56919e-07
-1.32268e-10
2.56984e-07
-1.28907e-10
2.57047e-07
-1.25906e-10
2.57108e-07
-1.22904e-10
2.57168e-07
-1.20178e-10
2.57227e-07
-1.17501e-10
2.57285e-07
-1.15026e-10
2.57341e-07
-1.12639e-10
2.57396e-07
-1.10411e-10
2.5745e-07
-1.0828e-10
2.57504e-07
-1.06312e-10
2.57556e-07
-1.04406e-10
2.57607e-07
-1.02713e-10
2.57658e-07
-1.01009e-10
2.57708e-07
-9.95958e-11
2.57757e-07
-9.80847e-11
2.57806e-07
-9.69376e-11
2.57854e-07
-9.56171e-11
2.57901e-07
-9.47049e-11
2.57948e-07
-9.35793e-11
2.57995e-07
-9.2858e-11
2.58041e-07
-9.19299e-11
2.58086e-07
-9.13529e-11
2.58132e-07
-9.06171e-11
2.58177e-07
-9.01455e-11
2.58222e-07
-8.95845e-11
2.58267e-07
-8.91929e-11
2.58311e-07
-8.87773e-11
2.58355e-07
-8.84545e-11
2.58399e-07
-8.81485e-11
2.58443e-07
-8.78928e-11
2.58487e-07
-8.76607e-11
2.58531e-07
-8.74741e-11
2.58575e-07
-8.72871e-11
2.58618e-07
-8.71689e-11
2.58662e-07
-8.70089e-11
2.58705e-07
-8.69529e-11
2.58749e-07
-8.68122e-11
2.58792e-07
-8.68067e-11
2.58836e-07
-8.66842e-11
2.58879e-07
-8.67143e-11
2.58922e-07
-8.66109e-11
2.58966e-07
-8.66611e-11
2.59009e-07
-8.6575e-11
2.59052e-07
-8.66314e-11
2.59096e-07
-8.65563e-11
2.59139e-07
-8.66071e-11
2.59182e-07
-8.65327e-11
2.59226e-07
-8.65678e-11
2.59269e-07
-8.64824e-11
2.59312e-07
-8.64925e-11
2.59355e-07
-8.63862e-11
2.59398e-07
-8.63626e-11
2.59442e-07
-8.62292e-11
2.59485e-07
-8.61638e-11
2.59528e-07
-8.60014e-11
2.59571e-07
-8.58883e-11
2.59613e-07
-8.56977e-11
2.59656e-07
-8.55341e-11
2.59699e-07
-8.53164e-11
2.59741e-07
-8.51033e-11
2.59784e-07
-8.4858e-11
2.59826e-07
-8.46002e-11
2.59868e-07
-8.43236e-11
2.5991e-07
-8.40289e-11
2.59952e-07
-8.37152e-11
2.59994e-07
-8.33923e-11
2.60035e-07
-8.30357e-11
2.60077e-07
-8.26926e-11
2.60118e-07
-8.22906e-11
2.60159e-07
-8.19332e-11
2.602e-07
-8.14893e-11
2.6024e-07
-8.11213e-11
2.60281e-07
-8.06466e-11
2.60321e-07
-8.02699e-11
2.60361e-07
-7.97828e-11
2.604e-07
-7.93992e-11
2.6044e-07
-7.89232e-11
2.60479e-07
-7.85355e-11
2.60518e-07
-7.80958e-11
2.60557e-07
-7.77093e-11
2.60596e-07
-7.73284e-11
2.60634e-07
-7.69508e-11
2.60672e-07
-7.66445e-11
2.60711e-07
-7.62854e-11
2.60749e-07
-7.60603e-11
2.60786e-07
-7.57295e-11
2.60824e-07
-7.55816e-11
2.60862e-07
-7.52877e-11
2.60899e-07
-7.52032e-11
2.60937e-07
-7.4952e-11
2.60974e-07
-7.49102e-11
2.61012e-07
-7.47039e-11
2.61049e-07
-7.46815e-11
2.61086e-07
-7.45189e-11
2.61124e-07
-7.44946e-11
2.61161e-07
-7.43718e-11
2.61198e-07
-7.43309e-11
2.61235e-07
-7.42415e-11
2.61272e-07
-7.41779e-11
2.61309e-07
-7.41143e-11
2.61346e-07
-7.40307e-11
2.61383e-07
-7.39834e-11
2.6142e-07
-7.38889e-11
2.61457e-07
-7.38469e-11
2.61494e-07
-7.37529e-11
2.61531e-07
-7.37041e-11
2.61568e-07
-7.36201e-11
2.61605e-07
-7.35525e-11
2.61641e-07
-7.34835e-11
2.61678e-07
-7.33875e-11
2.61715e-07
-7.33333e-11
2.61751e-07
-7.32043e-11
2.61788e-07
-7.31611e-11
2.61824e-07
-7.30021e-11
2.61861e-07
-7.29648e-11
2.61897e-07
-7.27872e-11
2.61934e-07
-7.27528e-11
2.6197e-07
-7.25748e-11
2.62006e-07
-7.25429e-11
2.62043e-07
-7.23862e-11
2.62079e-07
-7.23597e-11
2.62115e-07
-7.22448e-11
2.62151e-07
-7.22275e-11
2.62187e-07
-7.21692e-11
2.62223e-07
-7.21642e-11
2.62259e-07
-7.21683e-11
2.62295e-07
-7.21764e-11
2.62331e-07
-7.22392e-11
2.62368e-07
-7.22597e-11
2.62404e-07
-7.23713e-11
-7.24146e-11
2.50003e-07
-1.02077e-11
2.50018e-07
-4.47707e-11
2.5004e-07
-6.58164e-11
2.50073e-07
-9.82629e-11
2.50113e-07
-1.18086e-10
2.50162e-07
-1.48252e-10
2.50218e-07
-1.66303e-10
2.50283e-07
-1.93147e-10
2.50353e-07
-2.09e-10
2.5043e-07
-2.32224e-10
2.50512e-07
-2.45833e-10
2.50601e-07
-2.65302e-10
2.50693e-07
-2.76783e-10
2.50791e-07
-2.92691e-10
2.50892e-07
-3.02281e-10
2.50997e-07
-3.15045e-10
2.51105e-07
-3.23059e-10
2.51216e-07
-3.33221e-10
2.51329e-07
-3.40015e-10
2.51446e-07
-3.4814e-10
2.51564e-07
-3.54059e-10
2.51684e-07
-3.60659e-10
2.51806e-07
-3.65974e-10
2.5193e-07
-3.71445e-10
2.52055e-07
-3.76295e-10
2.52182e-07
-3.80896e-10
2.52311e-07
-3.85275e-10
2.52441e-07
-3.89117e-10
2.52572e-07
-3.92895e-10
2.52704e-07
-3.95965e-10
2.52837e-07
-3.98945e-10
2.52971e-07
-4.01139e-10
2.53105e-07
-4.03115e-10
2.5324e-07
-4.04284e-10
2.53375e-07
-4.05086e-10
2.53511e-07
-4.05079e-10
2.53646e-07
-4.04598e-10
2.5378e-07
-4.03297e-10
2.53914e-07
-4.01484e-10
2.54047e-07
-3.98827e-10
2.54179e-07
-3.95685e-10
2.5431e-07
-3.91675e-10
2.54439e-07
-3.87256e-10
2.54566e-07
-3.81956e-10
2.54692e-07
-3.76354e-10
2.54815e-07
-3.6989e-10
2.54936e-07
-3.63242e-10
2.55055e-07
-3.55793e-10
2.55171e-07
-3.48285e-10
2.55284e-07
-3.40078e-10
2.55394e-07
-3.31936e-10
2.55502e-07
-3.23235e-10
2.55607e-07
-3.14718e-10
2.55708e-07
-3.058e-10
2.55807e-07
-2.97184e-10
2.55903e-07
-2.88319e-10
2.55996e-07
-2.79868e-10
2.56086e-07
-2.7129e-10
2.56173e-07
-2.63234e-10
2.56258e-07
-2.55126e-10
2.5634e-07
-2.47635e-10
2.5642e-07
-2.40114e-10
2.56497e-07
-2.33288e-10
2.56572e-07
-2.26414e-10
2.56646e-07
-2.20275e-10
2.56717e-07
-2.1406e-10
2.56786e-07
-2.08572e-10
2.56853e-07
-2.02996e-10
2.56919e-07
-1.98081e-10
2.56983e-07
-1.93103e-10
2.57046e-07
-1.88674e-10
2.57107e-07
-1.84243e-10
2.57167e-07
-1.80226e-10
2.57226e-07
-1.76285e-10
2.57284e-07
-1.72639e-10
2.5734e-07
-1.69129e-10
2.57396e-07
-1.65844e-10
2.5745e-07
-1.62708e-10
2.57504e-07
-1.59801e-10
2.57556e-07
-1.56987e-10
2.57608e-07
-1.5448e-10
2.57659e-07
-1.51953e-10
2.57709e-07
-1.49853e-10
2.57759e-07
-1.47596e-10
2.57808e-07
-1.45886e-10
2.57856e-07
-1.43899e-10
2.57904e-07
-1.42531e-10
2.57951e-07
-1.40824e-10
2.57998e-07
-1.39733e-10
2.58044e-07
-1.38316e-10
2.5809e-07
-1.37434e-10
2.58136e-07
-1.36303e-10
2.58181e-07
-1.35572e-10
2.58227e-07
-1.34704e-10
2.58271e-07
-1.3409e-10
2.58316e-07
-1.33442e-10
2.58361e-07
-1.32931e-10
2.58405e-07
-1.3245e-10
2.58449e-07
-1.32041e-10
2.58493e-07
-1.31673e-10
2.58537e-07
-1.31372e-10
2.58581e-07
-1.31073e-10
2.58624e-07
-1.30879e-10
2.58668e-07
-1.30623e-10
2.58712e-07
-1.30527e-10
2.58755e-07
-1.30302e-10
2.58799e-07
-1.30285e-10
2.58842e-07
-1.3009e-10
2.58885e-07
-1.3013e-10
2.58929e-07
-1.29966e-10
2.58972e-07
-1.30038e-10
2.59015e-07
-1.29904e-10
2.59059e-07
-1.29987e-10
2.59102e-07
-1.29871e-10
2.59145e-07
-1.29947e-10
2.59189e-07
-1.29834e-10
2.59232e-07
-1.29886e-10
2.59275e-07
-1.29758e-10
2.59319e-07
-1.29774e-10
2.59362e-07
-1.29613e-10
2.59405e-07
-1.29579e-10
2.59448e-07
-1.29376e-10
2.59491e-07
-1.29279e-10
2.59534e-07
-1.29032e-10
2.59577e-07
-1.28864e-10
2.5962e-07
-1.28573e-10
2.59663e-07
-1.28328e-10
2.59706e-07
-1.27997e-10
2.59748e-07
-1.27676e-10
2.59791e-07
-1.27304e-10
2.59833e-07
-1.26915e-10
2.59875e-07
-1.26497e-10
2.59917e-07
-1.26052e-10
2.59959e-07
-1.25578e-10
2.60001e-07
-1.25091e-10
2.60042e-07
-1.24554e-10
2.60084e-07
-1.24037e-10
2.60125e-07
-1.23432e-10
2.60166e-07
-1.22895e-10
2.60207e-07
-1.22227e-10
2.60247e-07
-1.21675e-10
2.60287e-07
-1.20962e-10
2.60328e-07
-1.20398e-10
2.60367e-07
-1.19666e-10
2.60407e-07
-1.19094e-10
2.60447e-07
-1.18379e-10
2.60486e-07
-1.17801e-10
2.60525e-07
-1.17141e-10
2.60564e-07
-1.16565e-10
2.60602e-07
-1.15995e-10
2.60641e-07
-1.15432e-10
2.60679e-07
-1.14974e-10
2.60717e-07
-1.14439e-10
2.60755e-07
-1.14103e-10
2.60793e-07
-1.1361e-10
2.60831e-07
-1.13391e-10
2.60869e-07
-1.12952e-10
2.60906e-07
-1.12828e-10
2.60944e-07
-1.12452e-10
2.60981e-07
-1.12392e-10
2.61019e-07
-1.12083e-10
2.61056e-07
-1.12051e-10
2.61093e-07
-1.11807e-10
2.61131e-07
-1.11772e-10
2.61168e-07
-1.11587e-10
2.61205e-07
-1.11525e-10
2.61242e-07
-1.11391e-10
2.61279e-07
-1.11294e-10
2.61316e-07
-1.11199e-10
2.61353e-07
-1.11071e-10
2.6139e-07
-1.11001e-10
2.61427e-07
-1.10856e-10
2.61464e-07
-1.10794e-10
2.61501e-07
-1.10651e-10
2.61538e-07
-1.10579e-10
2.61575e-07
-1.10451e-10
2.61612e-07
-1.10351e-10
2.61649e-07
-1.10247e-10
2.61685e-07
-1.10103e-10
2.61722e-07
-1.10022e-10
2.61759e-07
-1.09828e-10
2.61795e-07
-1.09764e-10
2.61832e-07
-1.09524e-10
2.61868e-07
-1.09469e-10
2.61905e-07
-1.09201e-10
2.61941e-07
-1.0915e-10
2.61977e-07
-1.08881e-10
2.62014e-07
-1.08834e-10
2.6205e-07
-1.08596e-10
2.62086e-07
-1.08557e-10
2.62122e-07
-1.08383e-10
2.62158e-07
-1.08358e-10
2.62194e-07
-1.08269e-10
2.62231e-07
-1.08262e-10
2.62267e-07
-1.08269e-10
2.62303e-07
-1.08281e-10
2.62339e-07
-1.08377e-10
2.62375e-07
-1.08404e-10
2.62411e-07
-1.0857e-10
-1.08606e-10
2.50003e-07
-1.36126e-11
2.50019e-07
-5.99287e-11
2.50041e-07
-8.79783e-11
2.50074e-07
-1.31425e-10
2.50114e-07
-1.5785e-10
2.50164e-07
-1.98204e-10
2.5022e-07
-2.22229e-10
2.50285e-07
-2.58111e-10
2.50355e-07
-2.79182e-10
2.50433e-07
-3.10193e-10
2.50515e-07
-3.28262e-10
2.50604e-07
-3.54235e-10
2.50697e-07
-3.69467e-10
2.50795e-07
-3.90672e-10
2.50896e-07
-4.03394e-10
2.51001e-07
-4.204e-10
2.51109e-07
-4.31037e-10
2.5122e-07
-4.44575e-10
2.51334e-07
-4.53604e-10
2.5145e-07
-4.64433e-10
2.51569e-07
-4.72315e-10
2.51689e-07
-4.81116e-10
2.51811e-07
-4.88209e-10
2.51935e-07
-4.95509e-10
2.52061e-07
-5.01995e-10
2.52188e-07
-5.08133e-10
2.52317e-07
-5.13995e-10
2.52447e-07
-5.19121e-10
2.52578e-07
-5.24178e-10
2.52711e-07
-5.28273e-10
2.52844e-07
-5.32257e-10
2.52978e-07
-5.35183e-10
2.53113e-07
-5.37816e-10
2.53248e-07
-5.39374e-10
2.53383e-07
-5.40434e-10
2.53518e-07
-5.40421e-10
2.53654e-07
-5.39762e-10
2.53788e-07
-5.3802e-10
2.53922e-07
-5.35582e-10
2.54056e-07
-5.32027e-10
2.54188e-07
-5.27815e-10
2.54319e-07
-5.22448e-10
2.54448e-07
-5.1653e-10
2.54575e-07
-5.09436e-10
2.54701e-07
-5.01935e-10
2.54824e-07
-4.93279e-10
2.54945e-07
-4.84376e-10
2.55064e-07
-4.74396e-10
2.5518e-07
-4.64335e-10
2.55293e-07
-4.53335e-10
2.55404e-07
-4.42418e-10
2.55511e-07
-4.30751e-10
2.55616e-07
-4.19328e-10
2.55718e-07
-4.0737e-10
2.55816e-07
-3.95811e-10
2.55912e-07
-3.83927e-10
2.56004e-07
-3.72594e-10
2.56094e-07
-3.61103e-10
2.56181e-07
-3.5031e-10
2.56266e-07
-3.39459e-10
2.56348e-07
-3.29441e-10
2.56427e-07
-3.19393e-10
2.56504e-07
-3.10287e-10
2.56579e-07
-3.01124e-10
2.56651e-07
-2.92964e-10
2.56722e-07
-2.84703e-10
2.56791e-07
-2.77435e-10
2.56858e-07
-2.70049e-10
2.56923e-07
-2.63565e-10
2.56987e-07
-2.56996e-10
2.5705e-07
-2.51172e-10
2.57111e-07
-2.45348e-10
2.57171e-07
-2.40077e-10
2.57229e-07
-2.34916e-10
2.57287e-07
-2.30135e-10
2.57343e-07
-2.25549e-10
2.57399e-07
-2.21242e-10
2.57453e-07
-2.17145e-10
2.57506e-07
-2.13333e-10
2.57559e-07
-2.0965e-10
2.57611e-07
-2.06359e-10
2.57662e-07
-2.03038e-10
2.57713e-07
-2.00279e-10
2.57762e-07
-1.97295e-10
2.57811e-07
-1.95043e-10
2.5786e-07
-1.92397e-10
2.57908e-07
-1.90589e-10
2.57955e-07
-1.88301e-10
2.58003e-07
-1.86849e-10
2.58049e-07
-1.84936e-10
2.58095e-07
-1.8375e-10
2.58141e-07
-1.82214e-10
2.58187e-07
-1.81218e-10
2.58232e-07
-1.80033e-10
2.58277e-07
-1.79185e-10
2.58322e-07
-1.78295e-10
2.58367e-07
-1.7758e-10
2.58411e-07
-1.76916e-10
2.58456e-07
-1.76338e-10
2.585e-07
-1.75826e-10
2.58544e-07
-1.75396e-10
2.58588e-07
-1.74977e-10
2.58632e-07
-1.74696e-10
2.58675e-07
-1.74334e-10
2.58719e-07
-1.74189e-10
2.58763e-07
-1.7387e-10
2.58806e-07
-1.73837e-10
2.5885e-07
-1.73559e-10
2.58893e-07
-1.73605e-10
2.58936e-07
-1.73373e-10
2.5898e-07
-1.73463e-10
2.59023e-07
-1.73274e-10
2.59067e-07
-1.7338e-10
2.5911e-07
-1.7322e-10
2.59153e-07
-1.73318e-10
2.59197e-07
-1.73163e-10
2.5924e-07
-1.73232e-10
2.59283e-07
-1.73057e-10
2.59327e-07
-1.73079e-10
2.5937e-07
-1.72861e-10
2.59413e-07
-1.72817e-10
2.59456e-07
-1.72543e-10
2.59499e-07
-1.72415e-10
2.59542e-07
-1.7208e-10
2.59585e-07
-1.71856e-10
2.59628e-07
-1.71463e-10
2.59671e-07
-1.71136e-10
2.59714e-07
-1.70687e-10
2.59756e-07
-1.70258e-10
2.59799e-07
-1.69755e-10
2.59841e-07
-1.69234e-10
2.59883e-07
-1.68669e-10
2.59925e-07
-1.68073e-10
2.59967e-07
-1.67436e-10
2.60009e-07
-1.66783e-10
2.6005e-07
-1.66062e-10
2.60092e-07
-1.65371e-10
2.60133e-07
-1.6456e-10
2.60174e-07
-1.63844e-10
2.60215e-07
-1.6295e-10
2.60255e-07
-1.62216e-10
2.60295e-07
-1.61261e-10
2.60336e-07
-1.60513e-10
2.60375e-07
-1.59535e-10
2.60415e-07
-1.58776e-10
2.60455e-07
-1.57822e-10
2.60494e-07
-1.57057e-10
2.60533e-07
-1.56177e-10
2.60572e-07
-1.55414e-10
2.6061e-07
-1.54654e-10
2.60649e-07
-1.53908e-10
2.60687e-07
-1.533e-10
2.60725e-07
-1.5259e-10
2.60763e-07
-1.52145e-10
2.60801e-07
-1.51491e-10
2.60839e-07
-1.51202e-10
2.60877e-07
-1.50619e-10
2.60914e-07
-1.50457e-10
2.60952e-07
-1.49958e-10
2.60989e-07
-1.49881e-10
2.61027e-07
-1.4947e-10
2.61064e-07
-1.49429e-10
2.61101e-07
-1.49105e-10
2.61139e-07
-1.49057e-10
2.61176e-07
-1.48811e-10
2.61213e-07
-1.48727e-10
2.6125e-07
-1.48548e-10
2.61287e-07
-1.48416e-10
2.61324e-07
-1.48289e-10
2.61362e-07
-1.48116e-10
2.61399e-07
-1.48022e-10
2.61436e-07
-1.47826e-10
2.61472e-07
-1.47744e-10
2.61509e-07
-1.47549e-10
2.61546e-07
-1.47454e-10
2.61583e-07
-1.47282e-10
2.6162e-07
-1.47149e-10
2.61657e-07
-1.47009e-10
2.61693e-07
-1.46818e-10
2.6173e-07
-1.4671e-10
2.61767e-07
-1.4645e-10
2.61803e-07
-1.46365e-10
2.6184e-07
-1.46044e-10
2.61876e-07
-1.45971e-10
2.61913e-07
-1.4561e-10
2.61949e-07
-1.45543e-10
2.61985e-07
-1.4518e-10
2.62022e-07
-1.45118e-10
2.62058e-07
-1.44798e-10
2.62094e-07
-1.44746e-10
2.6213e-07
-1.44511e-10
2.62166e-07
-1.44477e-10
2.62202e-07
-1.44358e-10
2.62238e-07
-1.44348e-10
2.62275e-07
-1.44357e-10
2.62311e-07
-1.44373e-10
2.62347e-07
-1.44503e-10
2.62383e-07
-1.44535e-10
2.62419e-07
-1.44758e-10
-1.44785e-10
2.50003e-07
-1.70157e-11
2.50019e-07
-7.52659e-11
2.50041e-07
-1.10349e-10
2.50075e-07
-1.64905e-10
2.50115e-07
-1.97978e-10
2.50165e-07
-2.48602e-10
2.50222e-07
-2.78605e-10
2.50287e-07
-3.23575e-10
2.50358e-07
-3.4984e-10
2.50436e-07
-3.88655e-10
2.50519e-07
-4.11144e-10
2.50608e-07
-4.43611e-10
2.50701e-07
-4.62549e-10
2.508e-07
-4.89025e-10
2.50901e-07
-5.04836e-10
2.51007e-07
-5.26054e-10
2.51115e-07
-5.3928e-10
2.51227e-07
-5.56169e-10
2.51341e-07
-5.67412e-10
2.51457e-07
-5.80927e-10
2.51575e-07
-5.90768e-10
2.51696e-07
-6.0176e-10
2.51819e-07
-6.10643e-10
2.51943e-07
-6.19768e-10
2.52069e-07
-6.27912e-10
2.52196e-07
-6.35588e-10
2.52325e-07
-6.42959e-10
2.52455e-07
-6.4937e-10
2.52587e-07
-6.5573e-10
2.5272e-07
-6.60853e-10
2.52853e-07
-6.65856e-10
2.52987e-07
-6.69517e-10
2.53122e-07
-6.72813e-10
2.53258e-07
-6.74762e-10
2.53393e-07
-6.76075e-10
2.53529e-07
-6.76057e-10
2.53665e-07
-6.75213e-10
2.538e-07
-6.73029e-10
2.53934e-07
-6.69955e-10
2.54067e-07
-6.65498e-10
2.542e-07
-6.60207e-10
2.54331e-07
-6.53477e-10
2.5446e-07
-6.46051e-10
2.54588e-07
-6.37152e-10
2.54714e-07
-6.27742e-10
2.54837e-07
-6.16878e-10
2.54959e-07
-6.05707e-10
2.55078e-07
-5.93176e-10
2.55194e-07
-5.80545e-10
2.55307e-07
-5.66726e-10
2.55418e-07
-5.53011e-10
2.55525e-07
-5.38349e-10
2.5563e-07
-5.23988e-10
2.55732e-07
-5.08956e-10
2.5583e-07
-4.94419e-10
2.55926e-07
-4.79479e-10
2.56018e-07
-4.65223e-10
2.56108e-07
-4.5078e-10
2.56195e-07
-4.37209e-10
2.56279e-07
-4.23577e-10
2.56361e-07
-4.10996e-10
2.5644e-07
-3.98384e-10
2.56516e-07
-3.86969e-10
2.56591e-07
-3.75484e-10
2.56663e-07
-3.65282e-10
2.56733e-07
-3.54949e-10
2.56802e-07
-3.45893e-10
2.56868e-07
-3.36679e-10
2.56933e-07
-3.28628e-10
2.56997e-07
-3.20464e-10
2.57059e-07
-3.13253e-10
2.5712e-07
-3.06046e-10
2.57179e-07
-2.99535e-10
2.57237e-07
-2.93176e-10
2.57295e-07
-2.87278e-10
2.57351e-07
-2.81649e-10
2.57406e-07
-2.76342e-10
2.5746e-07
-2.71324e-10
2.57513e-07
-2.66631e-10
2.57566e-07
-2.62119e-10
2.57617e-07
-2.58074e-10
2.57668e-07
-2.53993e-10
2.57719e-07
-2.50609e-10
2.57768e-07
-2.46924e-10
2.57817e-07
-2.44168e-10
2.57866e-07
-2.40882e-10
2.57914e-07
-2.38671e-10
2.57961e-07
-2.35813e-10
2.58009e-07
-2.34033e-10
2.58055e-07
-2.31634e-10
2.58102e-07
-2.30167e-10
2.58148e-07
-2.28234e-10
2.58194e-07
-2.26988e-10
2.58239e-07
-2.25493e-10
2.58284e-07
-2.24416e-10
2.58329e-07
-2.23292e-10
2.58374e-07
-2.22372e-10
2.58419e-07
-2.21528e-10
2.58463e-07
-2.20777e-10
2.58507e-07
-2.2012e-10
2.58552e-07
-2.19555e-10
2.58596e-07
-2.1901e-10
2.5864e-07
-2.18637e-10
2.58683e-07
-2.18159e-10
2.58727e-07
-2.17962e-10
2.58771e-07
-2.17536e-10
2.58814e-07
-2.17484e-10
2.58858e-07
-2.17112e-10
2.58902e-07
-2.17161e-10
2.58945e-07
-2.16851e-10
2.58989e-07
-2.16957e-10
2.59032e-07
-2.16706e-10
2.59075e-07
-2.16833e-10
2.59119e-07
-2.16623e-10
2.59162e-07
-2.16741e-10
2.59206e-07
-2.16541e-10
2.59249e-07
-2.16625e-10
2.59292e-07
-2.164e-10
2.59336e-07
-2.16426e-10
2.59379e-07
-2.16147e-10
2.59422e-07
-2.16092e-10
2.59465e-07
-2.1574e-10
2.59509e-07
-2.15582e-10
2.59552e-07
-2.15151e-10
2.59595e-07
-2.14872e-10
2.59638e-07
-2.14367e-10
2.5968e-07
-2.13957e-10
2.59723e-07
-2.13384e-10
2.59766e-07
-2.12844e-10
2.59808e-07
-2.12204e-10
2.5985e-07
-2.11547e-10
2.59893e-07
-2.10832e-10
2.59935e-07
-2.10081e-10
2.59977e-07
-2.09277e-10
2.60018e-07
-2.08456e-10
2.6006e-07
-2.07549e-10
2.60101e-07
-2.06682e-10
2.60142e-07
-2.05663e-10
2.60183e-07
-2.04767e-10
2.60224e-07
-2.03645e-10
2.60264e-07
-2.0273e-10
2.60304e-07
-2.01532e-10
2.60345e-07
-2.00602e-10
2.60384e-07
-1.99376e-10
2.60424e-07
-1.98434e-10
2.60463e-07
-1.97238e-10
2.60503e-07
-1.96289e-10
2.60542e-07
-1.95188e-10
2.60581e-07
-1.94241e-10
2.60619e-07
-1.93292e-10
2.60658e-07
-1.92366e-10
2.60696e-07
-1.91608e-10
2.60734e-07
-1.90726e-10
2.60772e-07
-1.90175e-10
2.6081e-07
-1.8936e-10
2.60848e-07
-1.89004e-10
2.60885e-07
-1.88278e-10
2.60923e-07
-1.88081e-10
2.60961e-07
-1.87459e-10
2.60998e-07
-1.87366e-10
2.61035e-07
-1.86855e-10
2.61073e-07
-1.86805e-10
2.6111e-07
-1.86401e-10
2.61147e-07
-1.86341e-10
2.61185e-07
-1.86034e-10
2.61222e-07
-1.85926e-10
2.61259e-07
-1.85703e-10
2.61296e-07
-1.85533e-10
2.61333e-07
-1.85375e-10
2.6137e-07
-1.85151e-10
2.61407e-07
-1.85035e-10
2.61444e-07
-1.84783e-10
2.61481e-07
-1.84682e-10
2.61518e-07
-1.84434e-10
2.61555e-07
-1.84317e-10
2.61592e-07
-1.84098e-10
2.61628e-07
-1.83933e-10
2.61665e-07
-1.83757e-10
2.61702e-07
-1.83518e-10
2.61739e-07
-1.83383e-10
2.61775e-07
-1.83057e-10
2.61812e-07
-1.82952e-10
2.61848e-07
-1.82546e-10
2.61885e-07
-1.82457e-10
2.61921e-07
-1.81999e-10
2.61958e-07
-1.81916e-10
2.61994e-07
-1.81455e-10
2.6203e-07
-1.81378e-10
2.62066e-07
-1.80971e-10
2.62102e-07
-1.80906e-10
2.62139e-07
-1.80606e-10
2.62175e-07
-1.80564e-10
2.62211e-07
-1.80411e-10
2.62247e-07
-1.804e-10
2.62283e-07
-1.8041e-10
2.62319e-07
-1.80431e-10
2.62355e-07
-1.80595e-10
2.62391e-07
-1.80636e-10
2.62427e-07
-1.80917e-10
-1.80948e-10
2.50003e-07
-2.03939e-11
2.50019e-07
-9.08423e-11
2.50042e-07
-1.32999e-10
2.50076e-07
-1.98811e-10
2.50116e-07
-2.38578e-10
2.50167e-07
-2.99564e-10
2.50224e-07
-3.35542e-10
2.5029e-07
-3.8965e-10
2.50361e-07
-4.21075e-10
2.5044e-07
-4.67704e-10
2.50524e-07
-4.94562e-10
2.50614e-07
-5.33507e-10
2.50707e-07
-5.561e-10
2.50806e-07
-5.87817e-10
2.50908e-07
-6.06675e-10
2.51014e-07
-6.32075e-10
2.51122e-07
-6.47861e-10
2.51234e-07
-6.68077e-10
2.51349e-07
-6.81523e-10
2.51465e-07
-6.97711e-10
2.51584e-07
-7.09515e-10
2.51705e-07
-7.22691e-10
2.51828e-07
-7.33383e-10
2.51952e-07
-7.44327e-10
2.52079e-07
-7.54157e-10
2.52206e-07
-7.63365e-10
2.52336e-07
-7.72274e-10
2.52466e-07
-7.79963e-10
2.52598e-07
-7.87648e-10
2.52731e-07
-7.9379e-10
2.52865e-07
-7.99823e-10
2.53e-07
-8.04211e-10
2.53135e-07
-8.0817e-10
2.53271e-07
-8.10503e-10
2.53407e-07
-8.12061e-10
2.53543e-07
-8.12034e-10
2.53679e-07
-8.10992e-10
2.53814e-07
-8.08362e-10
2.53949e-07
-8.04642e-10
2.54082e-07
-7.9928e-10
2.54215e-07
-7.92902e-10
2.54346e-07
-7.84804e-10
2.54476e-07
-7.75868e-10
2.54604e-07
-7.65158e-10
2.5473e-07
-7.53839e-10
2.54854e-07
-7.40759e-10
2.54976e-07
-7.27318e-10
2.55095e-07
-7.12222e-10
2.55211e-07
-6.97013e-10
2.55325e-07
-6.80357e-10
2.55436e-07
-6.63827e-10
2.55544e-07
-6.46144e-10
2.55648e-07
-6.2882e-10
2.5575e-07
-6.10682e-10
2.55849e-07
-5.93129e-10
2.55944e-07
-5.75096e-10
2.56037e-07
-5.57875e-10
2.56127e-07
-5.40437e-10
2.56214e-07
-5.24042e-10
2.56298e-07
-5.07582e-10
2.56379e-07
-4.9239e-10
2.56458e-07
-4.77165e-10
2.56534e-07
-4.634e-10
2.56608e-07
-4.49543e-10
2.5668e-07
-4.37265e-10
2.5675e-07
-4.24812e-10
2.56818e-07
-4.13942e-10
2.56884e-07
-4.02861e-10
2.56949e-07
-3.93223e-10
2.57012e-07
-3.83435e-10
2.57073e-07
-3.74826e-10
2.57134e-07
-3.66223e-10
2.57193e-07
-3.58464e-10
2.5725e-07
-3.50913e-10
2.57307e-07
-3.43899e-10
2.57363e-07
-3.37248e-10
2.57417e-07
-3.30949e-10
2.57471e-07
-3.25044e-10
2.57524e-07
-3.19489e-10
2.57576e-07
-3.14187e-10
2.57627e-07
-3.0942e-10
2.57678e-07
-3.04618e-10
2.57728e-07
-3.00653e-10
2.57777e-07
-2.96301e-10
2.57826e-07
-2.93091e-10
2.57874e-07
-2.89194e-10
2.57922e-07
-2.86632e-10
2.5797e-07
-2.83228e-10
2.58017e-07
-2.81167e-10
2.58064e-07
-2.78301e-10
2.5811e-07
-2.76593e-10
2.58156e-07
-2.74283e-10
2.58202e-07
-2.72813e-10
2.58247e-07
-2.71027e-10
2.58293e-07
-2.69736e-10
2.58338e-07
-2.68395e-10
2.58383e-07
-2.67275e-10
2.58427e-07
-2.66266e-10
2.58472e-07
-2.65342e-10
2.58516e-07
-2.64549e-10
2.58561e-07
-2.63849e-10
2.58605e-07
-2.63181e-10
2.58649e-07
-2.62715e-10
2.58693e-07
-2.62117e-10
2.58737e-07
-2.61869e-10
2.58781e-07
-2.61327e-10
2.58824e-07
-2.61255e-10
2.58868e-07
-2.60778e-10
2.58912e-07
-2.60829e-10
2.58955e-07
-2.60429e-10
2.58999e-07
-2.60549e-10
2.59042e-07
-2.60225e-10
2.59086e-07
-2.60369e-10
2.59129e-07
-2.60101e-10
2.59173e-07
-2.60234e-10
2.59216e-07
-2.59982e-10
2.5926e-07
-2.60077e-10
2.59303e-07
-2.59797e-10
2.59347e-07
-2.59824e-10
2.5939e-07
-2.59477e-10
2.59433e-07
-2.59411e-10
2.59477e-07
-2.58973e-10
2.5952e-07
-2.58784e-10
2.59563e-07
-2.5825e-10
2.59606e-07
-2.57914e-10
2.59649e-07
-2.57289e-10
2.59692e-07
-2.56795e-10
2.59734e-07
-2.56088e-10
2.59777e-07
-2.55435e-10
2.59819e-07
-2.5465e-10
2.59862e-07
-2.53854e-10
2.59904e-07
-2.52982e-10
2.59946e-07
-2.52072e-10
2.59988e-07
-2.51096e-10
2.60029e-07
-2.50104e-10
2.60071e-07
-2.49006e-10
2.60112e-07
-2.47961e-10
2.60153e-07
-2.4673e-10
2.60194e-07
-2.45655e-10
2.60235e-07
-2.44302e-10
2.60275e-07
-2.43208e-10
2.60315e-07
-2.41764e-10
2.60355e-07
-2.40657e-10
2.60395e-07
-2.3918e-10
2.60435e-07
-2.3806e-10
2.60474e-07
-2.36621e-10
2.60513e-07
-2.35493e-10
2.60552e-07
-2.3417e-10
2.60591e-07
-2.33044e-10
2.6063e-07
-2.31906e-10
2.60668e-07
-2.30804e-10
2.60707e-07
-2.29897e-10
2.60745e-07
-2.28845e-10
2.60783e-07
-2.28189e-10
2.60821e-07
-2.27217e-10
2.60858e-07
-2.26795e-10
2.60896e-07
-2.25929e-10
2.60934e-07
-2.25698e-10
2.60971e-07
-2.24956e-10
2.61009e-07
-2.24848e-10
2.61046e-07
-2.24237e-10
2.61083e-07
-2.24179e-10
2.61121e-07
-2.23697e-10
2.61158e-07
-2.23622e-10
2.61195e-07
-2.23257e-10
2.61232e-07
-2.23121e-10
2.61269e-07
-2.22855e-10
2.61307e-07
-2.22642e-10
2.61344e-07
-2.22454e-10
2.61381e-07
-2.22175e-10
2.61418e-07
-2.22037e-10
2.61455e-07
-2.21726e-10
2.61492e-07
-2.21606e-10
2.61528e-07
-2.21301e-10