/*--------------------------------*- C++ -*----------------------------------*\
| =========                 |                                                 |
| \\      /  F ield         | OpenFOAM: The Open Source CFD Toolbox           |
|  \\    /   O peration     | Version:  2412                                  |
|   \\  /    A nd           | Website:  www.openfoam.com                      |
|    \\/     M anipulation  |                                                 |
\*---------------------------------------------------------------------------*/
FoamFile
{
    version     2.0;
    format      ascii;
    arch        "LSB;label=32;scalar=64";
    class       volVectorField;
    location    "900";
    object      U;
}
// * * * * * * * * * * * * * * * * * * * * * * * * * * * * * * * * * * * * * //

dimensions      [0 1 -1 0 0 0 0];

internalField   nonuniform List<vector> 
8000
(
(0.999885 -3.41529e-06 0)
(1.00014 -1.48537e-05 0)
(1 -2.19114e-05 0)
(1.00031 -3.25363e-05 0)
(1.00028 -3.9242e-05 0)
(1.00061 -4.91753e-05 0)
(1.00068 -5.52836e-05 0)
(1.00105 -6.4132e-05 0)
(1.0012 -6.95102e-05 0)
(1.0016 -7.71827e-05 0)
(1.00182 -8.18088e-05 0)
(1.00225 -8.82485e-05 0)
(1.00253 -9.21515e-05 0)
(1.00298 -9.74173e-05 0)
(1.00331 -0.000100672 0)
(1.00379 -0.000104898 0)
(1.00416 -0.000107608 0)
(1.00465 -0.000110971 0)
(1.00504 -0.000113257 0)
(1.00555 -0.000115945 0)
(1.00597 -0.000117926 0)
(1.00649 -0.000120108 0)
(1.00694 -0.00012188 0)
(1.00747 -0.00012369 0)
(1.00793 -0.000125305 0)
(1.00847 -0.00012683 0)
(1.00894 -0.000128288 0)
(1.0095 -0.000129565 0)
(1.00998 -0.000130827 0)
(1.01054 -0.000131852 0)
(1.01103 -0.000132852 0)
(1.01161 -0.000133589 0)
(1.0121 -0.000134257 0)
(1.01268 -0.000134654 0)
(1.01318 -0.000134932 0)
(1.01376 -0.000134937 0)
(1.01426 -0.000134788 0)
(1.01484 -0.00013436 0)
(1.01533 -0.000133766 0)
(1.01591 -0.000132886 0)
(1.0164 -0.000131849 0)
(1.01696 -0.000130519 0)
(1.01744 -0.000129057 0)
(1.018 -0.0001273 0)
(1.01846 -0.000125446 0)
(1.019 -0.000123305 0)
(1.01945 -0.000121107 0)
(1.01997 -0.000118644 0)
(1.02039 -0.000116163 0)
(1.0209 -0.000113454 0)
(1.0213 -0.000110768 0)
(1.02178 -0.000107897 0)
(1.02217 -0.000105091 0)
(1.02263 -0.000102151 0)
(1.02298 -9.93138e-05 0)
(1.02342 -9.6391e-05 0)
(1.02375 -9.36061e-05 0)
(1.02417 -9.07751e-05 0)
(1.02448 -8.81148e-05 0)
(1.02487 -8.54322e-05 0)
(1.02516 -8.29492e-05 0)
(1.02554 -8.04512e-05 0)
(1.0258 -7.81752e-05 0)
(1.02616 -7.58794e-05 0)
(1.02641 -7.38174e-05 0)
(1.02675 -7.17267e-05 0)
(1.02698 -6.98671e-05 0)
(1.02731 -6.79752e-05 0)
(1.02753 -6.62954e-05 0)
(1.02784 -6.45912e-05 0)
(1.02804 -6.30661e-05 0)
(1.02834 -6.15365e-05 0)
(1.02853 -6.01461e-05 0)
(1.02883 -5.87771e-05 0)
(1.029 -5.75115e-05 0)
(1.02929 -5.62884e-05 0)
(1.02945 -5.51481e-05 0)
(1.02973 -5.40563e-05 0)
(1.02989 -5.30491e-05 0)
(1.03015 -5.20751e-05 0)
(1.0303 -5.12098e-05 0)
(1.03056 -5.03436e-05 0)
(1.03071 -4.96234e-05 0)
(1.03096 -4.88596e-05 0)
(1.0311 -4.82784e-05 0)
(1.03135 -4.76159e-05 0)
(1.03148 -4.71577e-05 0)
(1.03172 -4.65977e-05 0)
(1.03185 -4.62398e-05 0)
(1.0321 -4.57828e-05 0)
(1.03222 -4.55006e-05 0)
(1.03246 -4.51425e-05 0)
(1.03258 -4.49154e-05 0)
(1.03282 -4.46461e-05 0)
(1.03294 -4.44602e-05 0)
(1.03318 -4.42638e-05 0)
(1.03329 -4.41124e-05 0)
(1.03353 -4.39698e-05 0)
(1.03364 -4.38515e-05 0)
(1.03388 -4.37444e-05 0)
(1.03399 -4.36594e-05 0)
(1.03423 -4.35732e-05 0)
(1.03434 -4.3521e-05 0)
(1.03458 -4.34469e-05 0)
(1.03469 -4.34242e-05 0)
(1.03493 -4.33587e-05 0)
(1.03503 -4.33599e-05 0)
(1.03528 -4.33028e-05 0)
(1.03538 -4.33206e-05 0)
(1.03562 -4.32725e-05 0)
(1.03573 -4.32995e-05 0)
(1.03597 -4.32596e-05 0)
(1.03607 -4.32891e-05 0)
(1.03632 -4.32541e-05 0)
(1.03642 -4.32803e-05 0)
(1.03666 -4.32451e-05 0)
(1.03676 -4.32629e-05 0)
(1.03701 -4.32218e-05 0)
(1.03711 -4.32267e-05 0)
(1.03736 -4.31749e-05 0)
(1.03745 -4.31626e-05 0)
(1.0377 -4.30974e-05 0)
(1.0378 -4.3064e-05 0)
(1.03805 -4.29846e-05 0)
(1.03814 -4.29276e-05 0)
(1.03839 -4.28346e-05 0)
(1.03848 -4.27527e-05 0)
(1.03873 -4.26466e-05 0)
(1.03882 -4.25406e-05 0)
(1.03908 -4.2421e-05 0)
(1.03916 -4.22935e-05 0)
(1.03941 -4.21581e-05 0)
(1.0395 -4.20127e-05 0)
(1.03975 -4.18585e-05 0)
(1.03983 -4.16992e-05 0)
(1.04009 -4.1523e-05 0)
(1.04017 -4.13534e-05 0)
(1.04042 -4.11538e-05 0)
(1.04049 -4.09764e-05 0)
(1.04074 -4.07554e-05 0)
(1.04082 -4.05716e-05 0)
(1.04107 -4.03348e-05 0)
(1.04114 -4.01456e-05 0)
(1.04139 -3.99023e-05 0)
(1.04146 -3.97084e-05 0)
(1.04171 -3.94705e-05 0)
(1.04177 -3.92737e-05 0)
(1.04202 -3.90539e-05 0)
(1.04209 -3.88571e-05 0)
(1.04234 -3.86665e-05 0)
(1.0424 -3.8474e-05 0)
(1.04265 -3.83206e-05 0)
(1.0427 -3.81375e-05 0)
(1.04295 -3.80244e-05 0)
(1.043 -3.78561e-05 0)
(1.04325 -3.77813e-05 0)
(1.04331 -3.76321e-05 0)
(1.04356 -3.75888e-05 0)
(1.04361 -3.74618e-05 0)
(1.04386 -3.74396e-05 0)
(1.0439 -3.7336e-05 0)
(1.04416 -3.73234e-05 0)
(1.0442 -3.72425e-05 0)
(1.04446 -3.72291e-05 0)
(1.0445 -3.71687e-05 0)
(1.04475 -3.71474e-05 0)
(1.0448 -3.71041e-05 0)
(1.04505 -3.7072e-05 0)
(1.04509 -3.70414e-05 0)
(1.04535 -3.7e-05 0)
(1.04539 -3.69771e-05 0)
(1.04565 -3.6931e-05 0)
(1.04568 -3.691e-05 0)
(1.04594 -3.68645e-05 0)
(1.04598 -3.68395e-05 0)
(1.04624 -3.67992e-05 0)
(1.04627 -3.67643e-05 0)
(1.04653 -3.67313e-05 0)
(1.04656 -3.66821e-05 0)
(1.04683 -3.6656e-05 0)
(1.04685 -3.65908e-05 0)
(1.04712 -3.65693e-05 0)
(1.04715 -3.64899e-05 0)
(1.04741 -3.64708e-05 0)
(1.04744 -3.63829e-05 0)
(1.04771 -3.63645e-05 0)
(1.04773 -3.62773e-05 0)
(1.048 -3.62597e-05 0)
(1.04802 -3.61837e-05 0)
(1.04829 -3.61684e-05 0)
(1.0483 -3.61135e-05 0)
(1.04858 -3.61028e-05 0)
(1.04859 -3.6076e-05 0)
(1.04887 -3.60716e-05 0)
(1.04888 -3.60756e-05 0)
(1.04916 -3.60782e-05 0)
(1.04917 -3.61109e-05 0)
(1.04945 -3.61213e-05 0)
(1.04946 -3.61812e-05 0)
(1.04974 -3.62182e-05 0)
(0.999883 -1.01872e-05 0)
(1.00014 -4.46583e-05 0)
(1 -6.56973e-05 0)
(1.00031 -9.7829e-05 0)
(1.00028 -0.000117793 0)
(1.00062 -0.000147771 0)
(1.00068 -0.000165941 0)
(1.00105 -0.000192615 0)
(1.0012 -0.000208591 0)
(1.0016 -0.000231709 0)
(1.00183 -0.000245439 0)
(1.00225 -0.000264847 0)
(1.00254 -0.000276432 0)
(1.00299 -0.000292313 0)
(1.00332 -0.000301991 0)
(1.00379 -0.000314748 0)
(1.00416 -0.000322831 0)
(1.00465 -0.000332992 0)
(1.00505 -0.000339834 0)
(1.00556 -0.000347958 0)
(1.00598 -0.000353902 0)
(1.0065 -0.000360497 0)
(1.00694 -0.000365814 0)
(1.00748 -0.000371276 0)
(1.00793 -0.000376112 0)
(1.00848 -0.0003807 0)
(1.00895 -0.000385055 0)
(1.00951 -0.000388884 0)
(1.00999 -0.000392639 0)
(1.01055 -0.000395697 0)
(1.01104 -0.000398662 0)
(1.01162 -0.000400845 0)
(1.01211 -0.000402818 0)
(1.01269 -0.000403981 0)
(1.01319 -0.000404792 0)
(1.01377 -0.000404784 0)
(1.01427 -0.00040432 0)
(1.01485 -0.000403028 0)
(1.01535 -0.000401238 0)
(1.01592 -0.000398599 0)
(1.01641 -0.000395487 0)
(1.01698 -0.000391505 0)
(1.01745 -0.000387123 0)
(1.01801 -0.000381864 0)
(1.01847 -0.000376308 0)
(1.01901 -0.000369896 0)
(1.01946 -0.000363306 0)
(1.01998 -0.000355922 0)
(1.02041 -0.000348482 0)
(1.02091 -0.00034035 0)
(1.02131 -0.000332285 0)
(1.0218 -0.000323663 0)
(1.02218 -0.000315229 0)
(1.02264 -0.00030639 0)
(1.02299 -0.000297853 0)
(1.02343 -0.000289058 0)
(1.02376 -0.000280674 0)
(1.02418 -0.00027215 0)
(1.02448 -0.000264139 0)
(1.02488 -0.000256059 0)
(1.02516 -0.000248583 0)
(1.02554 -0.000241062 0)
(1.02581 -0.000234215 0)
(1.02616 -0.00022731 0)
(1.02641 -0.000221116 0)
(1.02675 -0.00021484 0)
(1.02698 -0.000209265 0)
(1.02731 -0.000203601 0)
(1.02752 -0.000198578 0)
(1.02783 -0.000193491 0)
(1.02804 -0.000188944 0)
(1.02834 -0.000184392 0)
(1.02853 -0.000180258 0)
(1.02882 -0.000176194 0)
(1.029 -0.00017244 0)
(1.02928 -0.000168815 0)
(1.02945 -0.00016544 0)
(1.02972 -0.000162206 0)
(1.02988 -0.000159229 0)
(1.03015 -0.000156343 0)
(1.0303 -0.000153785 0)
(1.03056 -0.000151216 0)
(1.0307 -0.000149084 0)
(1.03096 -0.000146815 0)
(1.0311 -0.00014509 0)
(1.03135 -0.000143116 0)
(1.03148 -0.00014175 0)
(1.03173 -0.000140075 0)
(1.03186 -0.000139001 0)
(1.0321 -0.000137627 0)
(1.03222 -0.000136774 0)
(1.03247 -0.000135689 0)
(1.03259 -0.000134999 0)
(1.03283 -0.000134174 0)
(1.03295 -0.000133606 0)
(1.03319 -0.000132998 0)
(1.0333 -0.000132533 0)
(1.03354 -0.000132087 0)
(1.03365 -0.000131721 0)
(1.03389 -0.000131385 0)
(1.034 -0.000131118 0)
(1.03424 -0.00013085 0)
(1.03435 -0.000130682 0)
(1.03459 -0.000130453 0)
(1.0347 -0.000130375 0)
(1.03494 -0.000130173 0)
(1.03505 -0.000130169 0)
(1.03529 -0.000129993 0)
(1.03539 -0.000130041 0)
(1.03564 -0.00012989 0)
(1.03574 -0.000129967 0)
(1.03599 -0.00012984 0)
(1.03609 -0.000129925 0)
(1.03633 -0.000129813 0)
(1.03643 -0.000129889 0)
(1.03668 -0.000129776 0)
(1.03678 -0.000129827 0)
(1.03703 -0.000129698 0)
(1.03712 -0.000129711 0)
(1.03737 -0.000129551 0)
(1.03747 -0.000129513 0)
(1.03772 -0.000129314 0)
(1.03781 -0.000129213 0)
(1.03806 -0.000128972 0)
(1.03816 -0.000128801 0)
(1.03841 -0.000128518 0)
(1.0385 -0.000128273 0)
(1.03875 -0.00012795 0)
(1.03884 -0.000127632 0)
(1.03909 -0.000127268 0)
(1.03918 -0.000126884 0)
(1.03943 -0.000126472 0)
(1.03952 -0.000126033 0)
(1.03977 -0.000125565 0)
(1.03985 -0.000125084 0)
(1.0401 -0.000124551 0)
(1.04018 -0.000124038 0)
(1.04043 -0.000123437 0)
(1.04051 -0.000122901 0)
(1.04076 -0.000122237 0)
(1.04084 -0.000121684 0)
(1.04109 -0.000120973 0)
(1.04116 -0.000120406 0)
(1.04141 -0.000119676 0)
(1.04148 -0.000119098 0)
(1.04173 -0.000118385 0)
(1.04179 -0.0001178 0)
(1.04204 -0.000117141 0)
(1.0421 -0.000116559 0)
(1.04235 -0.000115987 0)
(1.04241 -0.000115418 0)
(1.04266 -0.000114958 0)
(1.04272 -0.000114417 0)
(1.04297 -0.000114079 0)
(1.04302 -0.000113581 0)
(1.04327 -0.000113357 0)
(1.04332 -0.000112915 0)
(1.04357 -0.000112787 0)
(1.04362 -0.000112409 0)
(1.04387 -0.000112344 0)
(1.04392 -0.000112034 0)
(1.04417 -0.000111999 0)
(1.04422 -0.000111755 0)
(1.04447 -0.000111718 0)
(1.04452 -0.000111534 0)
(1.04477 -0.000111472 0)
(1.04481 -0.000111338 0)
(1.04507 -0.000111244 0)
(1.04511 -0.000111148 0)
(1.04537 -0.000111025 0)
(1.0454 -0.000110953 0)
(1.04566 -0.000110813 0)
(1.0457 -0.000110749 0)
(1.04596 -0.00011061 0)
(1.04599 -0.000110535 0)
(1.04626 -0.00011041 0)
(1.04629 -0.000110307 0)
(1.04655 -0.000110204 0)
(1.04658 -0.000110058 0)
(1.04685 -0.000109977 0)
(1.04687 -0.000109782 0)
(1.04714 -0.000109717 0)
(1.04716 -0.000109478 0)
(1.04743 -0.000109421 0)
(1.04745 -0.000109156 0)
(1.04772 -0.000109104 0)
(1.04775 -0.000108839 0)
(1.04802 -0.000108791 0)
(1.04803 -0.000108559 0)
(1.04831 -0.000108519 0)
(1.04832 -0.000108348 0)
(1.0486 -0.000108322 0)
(1.04861 -0.000108236 0)
(1.04889 -0.000108228 0)
(1.0489 -0.000108234 0)
(1.04918 -0.000108246 0)
(1.04919 -0.000108339 0)
(1.04947 -0.000108371 0)
(1.04948 -0.000108538 0)
(1.04976 -0.000108621 0)
(0.999882 -1.69856e-05 0)
(1.00014 -7.46018e-05 0)
(1 -0.000109558 0)
(1.00031 -0.000163417 0)
(1.00028 -0.000196539 0)
(1.00062 -0.000246742 0)
(1.00068 -0.000276872 0)
(1.00106 -0.000321523 0)
(1.00121 -0.000348003 0)
(1.00161 -0.000386673 0)
(1.00183 -0.000409423 0)
(1.00226 -0.000441859 0)
(1.00255 -0.00046105 0)
(1.003 -0.000487564 0)
(1.00333 -0.00050359 0)
(1.0038 -0.00052487 0)
(1.00417 -0.000538255 0)
(1.00466 -0.000555196 0)
(1.00506 -0.000566532 0)
(1.00557 -0.000580076 0)
(1.00599 -0.000589942 0)
(1.00652 -0.000600942 0)
(1.00696 -0.00060979 0)
(1.00749 -0.00061891 0)
(1.00795 -0.00062698 0)
(1.00849 -0.000634648 0)
(1.00896 -0.000641934 0)
(1.00952 -0.000648338 0)
(1.01 -0.000654629 0)
(1.01057 -0.000659747 0)
(1.01106 -0.000664715 0)
(1.01164 -0.000668374 0)
(1.01213 -0.000671675 0)
(1.01271 -0.000673626 0)
(1.01321 -0.000674975 0)
(1.01379 -0.000674966 0)
(1.01429 -0.000674177 0)
(1.01487 -0.000672013 0)
(1.01537 -0.000669003 0)
(1.01594 -0.000664582 0)
(1.01643 -0.000659359 0)
(1.017 -0.000652686 0)
(1.01748 -0.000645337 0)
(1.01803 -0.000636522 0)
(1.0185 -0.000627205 0)
(1.01904 -0.000616456 0)
(1.01948 -0.000605405 0)
(1.02001 -0.000593023 0)
(1.02043 -0.000580545 0)
(1.02093 -0.000566908 0)
(1.02134 -0.000553382 0)
(1.02182 -0.000538927 0)
(1.0222 -0.000524783 0)
(1.02266 -0.00050997 0)
(1.02301 -0.000495662 0)
(1.02345 -0.000480935 0)
(1.02378 -0.000466898 0)
(1.02419 -0.000452643 0)
(1.0245 -0.000439253 0)
(1.02489 -0.000425766 0)
(1.02518 -0.000413301 0)
(1.02555 -0.000400778 0)
(1.02581 -0.000389397 0)
(1.02617 -0.000377933 0)
(1.02641 -0.000367676 0)
(1.02675 -0.00035729 0)
(1.02698 -0.000348097 0)
(1.02731 -0.000338755 0)
(1.02752 -0.000330502 0)
(1.02783 -0.000322141 0)
(1.02803 -0.000314689 0)
(1.02833 -0.000307228 0)
(1.02852 -0.000300463 0)
(1.02882 -0.000293814 0)
(1.02899 -0.00028767 0)
(1.02928 -0.000281744 0)
(1.02945 -0.000276211 0)
(1.02972 -0.000270917 0)
(1.02988 -0.000266024 0)
(1.03015 -0.000261285 0)
(1.0303 -0.000257068 0)
(1.03056 -0.000252827 0)
(1.03071 -0.0002493 0)
(1.03097 -0.000245528 0)
(1.0311 -0.000242661 0)
(1.03136 -0.000239355 0)
(1.03149 -0.00023707 0)
(1.03174 -0.000234243 0)
(1.03187 -0.000232432 0)
(1.03211 -0.000230093 0)
(1.03224 -0.000228639 0)
(1.03248 -0.00022678 0)
(1.0326 -0.000225587 0)
(1.03285 -0.000224164 0)
(1.03296 -0.000223169 0)
(1.03321 -0.000222113 0)
(1.03332 -0.00022129 0)
(1.03356 -0.00022051 0)
(1.03368 -0.000219855 0)
(1.03392 -0.000219263 0)
(1.03403 -0.000218783 0)
(1.03427 -0.000218305 0)
(1.03438 -0.000217999 0)
(1.03462 -0.000217591 0)
(1.03473 -0.000217443 0)
(1.03497 -0.000217084 0)
(1.03507 -0.000217066 0)
(1.03532 -0.000216754 0)
(1.03542 -0.000216826 0)
(1.03566 -0.000216563 0)
(1.03577 -0.000216687 0)
(1.03601 -0.000216468 0)
(1.03611 -0.000216608 0)
(1.03636 -0.000216418 0)
(1.03646 -0.000216544 0)
(1.03671 -0.000216357 0)
(1.0368 -0.000216444 0)
(1.03705 -0.000216229 0)
(1.03715 -0.000216254 0)
(1.0374 -0.000215987 0)
(1.0375 -0.000215927 0)
(1.03775 -0.000215592 0)
(1.03784 -0.000215429 0)
(1.03809 -0.000215022 0)
(1.03818 -0.00021474 0)
(1.03843 -0.000214261 0)
(1.03853 -0.000213853 0)
(1.03878 -0.000213308 0)
(1.03887 -0.000212776 0)
(1.03912 -0.000212161 0)
(1.03921 -0.000211516 0)
(1.03946 -0.000210823 0)
(1.03954 -0.000210086 0)
(1.03979 -0.0002093 0)
(1.03988 -0.000208491 0)
(1.04013 -0.000207598 0)
(1.04021 -0.000206738 0)
(1.04046 -0.000205731 0)
(1.04054 -0.000204836 0)
(1.04079 -0.000203724 0)
(1.04086 -0.000202803 0)
(1.04111 -0.000201614 0)
(1.04119 -0.000200672 0)
(1.04144 -0.000199452 0)
(1.0415 -0.000198495 0)
(1.04175 -0.000197304 0)
(1.04182 -0.000196337 0)
(1.04207 -0.000195238 0)
(1.04213 -0.000194275 0)
(1.04238 -0.000193323 0)
(1.04244 -0.000192384 0)
(1.04269 -0.000191619 0)
(1.04274 -0.000190726 0)
(1.04299 -0.000190165 0)
(1.04305 -0.000189341 0)
(1.0433 -0.000188974 0)
(1.04335 -0.000188242 0)
(1.0436 -0.000188033 0)
(1.04365 -0.000187406 0)
(1.0439 -0.000187303 0)
(1.04395 -0.000186787 0)
(1.0442 -0.000186733 0)
(1.04425 -0.000186326 0)
(1.0445 -0.000186266 0)
(1.04454 -0.000185958 0)
(1.0448 -0.000185856 0)
(1.04484 -0.000185632 0)
(1.0451 -0.000185473 0)
(1.04514 -0.000185313 0)
(1.04539 -0.000185104 0)
(1.04543 -0.000184986 0)
(1.04569 -0.000184748 0)
(1.04573 -0.000184644 0)
(1.04599 -0.000184407 0)
(1.04602 -0.000184286 0)
(1.04628 -0.000184074 0)
(1.04632 -0.000183906 0)
(1.04658 -0.000183731 0)
(1.04661 -0.000183491 0)
(1.04687 -0.000183354 0)
(1.0469 -0.000183031 0)
(1.04717 -0.000182922 0)
(1.04719 -0.000182524 0)
(1.04746 -0.000182431 0)
(1.04748 -0.000181986 0)
(1.04775 -0.000181901 0)
(1.04777 -0.000181456 0)
(1.04804 -0.000181379 0)
(1.04806 -0.000180987 0)
(1.04834 -0.000180923 0)
(1.04835 -0.000180636 0)
(1.04863 -0.000180596 0)
(1.04864 -0.00018045 0)
(1.04892 -0.000180439 0)
(1.04893 -0.00018045 0)
(1.04921 -0.000180471 0)
(1.04922 -0.000180628 0)
(1.0495 -0.000180676 0)
(1.04951 -0.00018095 0)
(1.04979 -0.000181032 0)
(0.999882 -2.38044e-05 0)
(1.00014 -0.000104809 0)
(1 -0.000153698 0)
(1.00032 -0.000229408 0)
(1.00028 -0.000275743 0)
(1.00062 -0.000346251 0)
(1.00069 -0.000388347 0)
(1.00106 -0.000451008 0)
(1.00122 -0.000487958 0)
(1.00162 -0.000542179 0)
(1.00184 -0.000573891 0)
(1.00227 -0.000619337 0)
(1.00256 -0.000646072 0)
(1.00301 -0.0006832 0)
(1.00335 -0.000705527 0)
(1.00382 -0.000735319 0)
(1.00419 -0.000753981 0)
(1.00468 -0.0007777 0)
(1.00508 -0.000793529 0)
(1.00559 -0.000812498 0)
(1.00601 -0.000826299 0)
(1.00654 -0.00084171 0)
(1.00698 -0.000854109 0)
(1.00751 -0.000866887 0)
(1.00797 -0.000878208 0)
(1.00852 -0.00088895 0)
(1.00899 -0.000899173 0)
(1.00955 -0.000908139 0)
(1.01003 -0.00091696 0)
(1.0106 -0.000924121 0)
(1.01109 -0.000931077 0)
(1.01166 -0.000936192 0)
(1.01216 -0.0009408 0)
(1.01274 -0.000943521 0)
(1.01324 -0.000945387 0)
(1.01382 -0.000945363 0)
(1.01432 -0.000944229 0)
(1.01491 -0.000941185 0)
(1.0154 -0.000936938 0)
(1.01598 -0.000930729 0)
(1.01647 -0.000923381 0)
(1.01704 -0.000914009 0)
(1.01751 -0.000903677 0)
(1.01807 -0.000891292 0)
(1.01853 -0.000878194 0)
(1.01907 -0.000863084 0)
(1.01952 -0.000847542 0)
(1.02004 -0.000830126 0)
(1.02047 -0.000812569 0)
(1.02097 -0.000793378 0)
(1.02137 -0.000774336 0)
(1.02186 -0.000753986 0)
(1.02223 -0.000734066 0)
(1.02269 -0.00071321 0)
(1.02305 -0.000693057 0)
(1.02348 -0.000672328 0)
(1.02381 -0.000652567 0)
(1.02422 -0.000632517 0)
(1.02453 -0.000613687 0)
(1.02492 -0.000594744 0)
(1.0252 -0.00057725 0)
(1.02558 -0.000559694 0)
(1.02584 -0.000543768 0)
(1.02619 -0.000527741 0)
(1.02644 -0.000513441 0)
(1.02677 -0.00049897 0)
(1.027 -0.000486208 0)
(1.02732 -0.000473243 0)
(1.02754 -0.000461835 0)
(1.02785 -0.000450278 0)
(1.02805 -0.000440014 0)
(1.02835 -0.000429744 0)
(1.02854 -0.000420445 0)
(1.02883 -0.000411323 0)
(1.02901 -0.000402885 0)
(1.02929 -0.000394766 0)
(1.02946 -0.000387165 0)
(1.02973 -0.00037991 0)
(1.02989 -0.000373178 0)
(1.03016 -0.000366664 0)
(1.03031 -0.000360851 0)
(1.03058 -0.000354991 0)
(1.03072 -0.000350115 0)
(1.03098 -0.000344868 0)
(1.03112 -0.000340886 0)
(1.03137 -0.000336253 0)
(1.03151 -0.00033306 0)
(1.03176 -0.000329066 0)
(1.03189 -0.000326511 0)
(1.03213 -0.000323181 0)
(1.03226 -0.000321107 0)
(1.0325 -0.000318438 0)
(1.03263 -0.000316713 0)
(1.03287 -0.000314656 0)
(1.03299 -0.000313199 0)
(1.03323 -0.000311658 0)
(1.03335 -0.000310439 0)
(1.03359 -0.000309292 0)
(1.0337 -0.000308313 0)
(1.03394 -0.000307434 0)
(1.03405 -0.000306708 0)
(1.0343 -0.000305996 0)
(1.03441 -0.000305525 0)
(1.03465 -0.000304914 0)
(1.03476 -0.000304675 0)
(1.035 -0.000304139 0)
(1.0351 -0.00030409 0)
(1.03535 -0.000303625 0)
(1.03545 -0.000303711 0)
(1.03569 -0.00030332 0)
(1.0358 -0.000303484 0)
(1.03604 -0.000303161 0)
(1.03614 -0.00030335 0)
(1.03639 -0.000303073 0)
(1.03649 -0.000303246 0)
(1.03674 -0.000302976 0)
(1.03684 -0.000303096 0)
(1.03708 -0.000302791 0)
(1.03718 -0.000302825 0)
(1.03743 -0.000302446 0)
(1.03753 -0.000302365 0)
(1.03778 -0.00030189 0)
(1.03787 -0.000301664 0)
(1.03812 -0.000301085 0)
(1.03822 -0.000300692 0)
(1.03847 -0.000300013 0)
(1.03856 -0.000299442 0)
(1.03881 -0.000298668 0)
(1.0389 -0.000297921 0)
(1.03915 -0.00029705 0)
(1.03924 -0.000296144 0)
(1.03949 -0.000295164 0)
(1.03958 -0.000294127 0)
(1.03983 -0.000293019 0)
(1.03991 -0.000291881 0)
(1.04016 -0.000290624 0)
(1.04024 -0.000289417 0)
(1.04049 -0.000288002 0)
(1.04057 -0.000286747 0)
(1.04082 -0.000285186 0)
(1.0409 -0.000283898 0)
(1.04115 -0.00028223 0)
(1.04122 -0.000280916 0)
(1.04147 -0.000279206 0)
(1.04154 -0.000277872 0)
(1.04179 -0.000276203 0)
(1.04185 -0.000274858 0)
(1.0421 -0.000273319 0)
(1.04216 -0.00027198 0)
(1.04241 -0.000270649 0)
(1.04247 -0.000269341 0)
(1.04272 -0.000268275 0)
(1.04278 -0.00026703 0)
(1.04303 -0.00026625 0)
(1.04308 -0.000265102 0)
(1.04333 -0.000264594 0)
(1.04338 -0.000263572 0)
(1.04363 -0.000263286 0)
(1.04368 -0.00026241 0)
(1.04393 -0.000262272 0)
(1.04398 -0.000261551 0)
(1.04423 -0.000261478 0)
(1.04428 -0.000260908 0)
(1.04453 -0.000260826 0)
(1.04458 -0.000260394 0)
(1.04483 -0.00026025 0)
(1.04487 -0.000259936 0)
(1.04513 -0.000259709 0)
(1.04517 -0.000259486 0)
(1.04543 -0.000259187 0)
(1.04547 -0.000259022 0)
(1.04572 -0.000258684 0)
(1.04576 -0.000258539 0)
(1.04602 -0.000258202 0)
(1.04605 -0.000258034 0)
(1.04632 -0.000257734 0)
(1.04635 -0.000257499 0)
(1.04661 -0.000257253 0)
(1.04664 -0.000256917 0)
(1.04691 -0.000256726 0)
(1.04693 -0.000256272 0)
(1.0472 -0.000256121 0)
(1.04723 -0.00025556 0)
(1.04749 -0.000255432 0)
(1.04752 -0.000254804 0)
(1.04779 -0.000254687 0)
(1.04781 -0.000254058 0)
(1.04808 -0.000253951 0)
(1.0481 -0.000253397 0)
(1.04837 -0.000253309 0)
(1.04838 -0.000252903 0)
(1.04866 -0.000252847 0)
(1.04867 -0.00025264 0)
(1.04895 -0.000252626 0)
(1.04896 -0.000252641 0)
(1.04924 -0.000252669 0)
(1.04925 -0.000252894 0)
(1.04953 -0.000252952 0)
(1.04954 -0.000253338 0)
(1.04982 -0.000253399 0)
(0.999882 -3.06022e-05 0)
(1.00014 -0.000135339 0)
(1.00001 -0.000198181 0)
(1.00032 -0.000295961 0)
(1.00029 -0.000355561 0)
(1.00063 -0.000446546 0)
(1.0007 -0.000500587 0)
(1.00107 -0.000581376 0)
(1.00123 -0.000628739 0)
(1.00163 -0.000698565 0)
(1.00186 -0.000739163 0)
(1.00229 -0.000797618 0)
(1.00258 -0.000831813 0)
(1.00303 -0.000879512 0)
(1.00337 -0.000908057 0)
(1.00384 -0.0009463 0)
(1.00421 -0.000970166 0)
(1.00471 -0.00100061 0)
(1.00511 -0.00102087 0)
(1.00562 -0.00104523 0)
(1.00604 -0.00106294 0)
(1.00656 -0.00108274 0)
(1.00701 -0.0010987 0)
(1.00754 -0.00111513 0)
(1.008 -0.00112975 0)
(1.00855 -0.00114357 0)
(1.00902 -0.00115679 0)
(1.00958 -0.00116834 0)
(1.01006 -0.00117975 0)
(1.01063 -0.00118898 0)
(1.01112 -0.00119796 0)
(1.0117 -0.00120456 0)
(1.0122 -0.0012105 0)
(1.01278 -0.001214 0)
(1.01328 -0.00121639 0)
(1.01387 -0.00121635 0)
(1.01437 -0.00121486 0)
(1.01495 -0.00121093 0)
(1.01545 -0.00120542 0)
(1.01602 -0.0011974 0)
(1.01651 -0.0011879 0)
(1.01708 -0.0011758 0)
(1.01756 -0.00116245 0)
(1.01812 -0.00114645 0)
(1.01858 -0.00112954 0)
(1.01913 -0.00111001 0)
(1.01957 -0.00108994 0)
(1.0201 -0.00106743 0)
(1.02052 -0.00104473 0)
(1.02103 -0.00101992 0)
(1.02143 -0.000995295 0)
(1.02191 -0.000968977 0)
(1.02229 -0.000943207 0)
(1.02275 -0.000916234 0)
(1.0231 -0.000890159 0)
(1.02354 -0.000863356 0)
(1.02387 -0.000837794 0)
(1.02428 -0.000811885 0)
(1.02459 -0.00078755 0)
(1.02498 -0.000763095 0)
(1.02526 -0.000740523 0)
(1.02563 -0.000717893 0)
(1.02589 -0.000697395 0)
(1.02624 -0.000676776 0)
(1.02648 -0.000658431 0)
(1.02682 -0.000639863 0)
(1.02705 -0.000623551 0)
(1.02737 -0.000606969 0)
(1.02758 -0.000592443 0)
(1.02789 -0.000577717 0)
(1.02809 -0.000564689 0)
(1.02839 -0.000551655 0)
(1.02857 -0.000539876 0)
(1.02886 -0.000528344 0)
(1.02904 -0.000517666 0)
(1.02932 -0.000507433 0)
(1.02949 -0.000497814 0)
(1.02976 -0.000488679 0)
(1.02992 -0.000480161 0)
(1.03019 -0.000471948 0)
(1.03034 -0.000464592 0)
(1.0306 -0.000457175 0)
(1.03075 -0.000451006 0)
(1.031 -0.000444324 0)
(1.03114 -0.000439287 0)
(1.0314 -0.000433346 0)
(1.03153 -0.0004293 0)
(1.03178 -0.000424145 0)
(1.03191 -0.00042089 0)
(1.03216 -0.000416568 0)
(1.03228 -0.000413899 0)
(1.03253 -0.000410419 0)
(1.03265 -0.00040817 0)
(1.0329 -0.000405477 0)
(1.03302 -0.00040355 0)
(1.03326 -0.000401526 0)
(1.03337 -0.000399892 0)
(1.03362 -0.000398376 0)
(1.03373 -0.00039705 0)
(1.03397 -0.000395878 0)
(1.03409 -0.000394885 0)
(1.03433 -0.000393924 0)
(1.03444 -0.000393271 0)
(1.03468 -0.000392437 0)
(1.03479 -0.000392098 0)
(1.03503 -0.000391359 0)
(1.03514 -0.000391275 0)
(1.03538 -0.000390633 0)
(1.03548 -0.000390729 0)
(1.03573 -0.000390192 0)
(1.03583 -0.000390391 0)
(1.03608 -0.000389953 0)
(1.03618 -0.000390188 0)
(1.03642 -0.000389818 0)
(1.03653 -0.000390034 0)
(1.03677 -0.000389679 0)
(1.03687 -0.000389831 0)
(1.03712 -0.000389432 0)
(1.03722 -0.000389478 0)
(1.03747 -0.000388982 0)
(1.03756 -0.000388881 0)
(1.03781 -0.000388258 0)
(1.03791 -0.000387972 0)
(1.03816 -0.000387211 0)
(1.03825 -0.000386709 0)
(1.0385 -0.000385816 0)
(1.0386 -0.000385081 0)
(1.03885 -0.000384066 0)
(1.03894 -0.000383101 0)
(1.03919 -0.000381963 0)
(1.03928 -0.00038079 0)
(1.03953 -0.000379516 0)
(1.03961 -0.000378172 0)
(1.03986 -0.000376735 0)
(1.03995 -0.000375263 0)
(1.0402 -0.000373637 0)
(1.04028 -0.000372079 0)
(1.04053 -0.00037025 0)
(1.04061 -0.000368636 0)
(1.04086 -0.00036662 0)
(1.04093 -0.000364968 0)
(1.04118 -0.000362816 0)
(1.04125 -0.000361135 0)
(1.0415 -0.00035893 0)
(1.04157 -0.000357226 0)
(1.04182 -0.000355076 0)
(1.04189 -0.000353359 0)
(1.04214 -0.000351379 0)
(1.0422 -0.000349669 0)
(1.04245 -0.00034796 0)
(1.04251 -0.000346289 0)
(1.04276 -0.000344923 0)
(1.04281 -0.000343332 0)
(1.04306 -0.000342337 0)
(1.04311 -0.000340869 0)
(1.04337 -0.000340224 0)
(1.04342 -0.000338916 0)
(1.04367 -0.000338556 0)
(1.04372 -0.000337435 0)
(1.04397 -0.000337264 0)
(1.04402 -0.000336341 0)
(1.04427 -0.000336251 0)
(1.04431 -0.00033552 0)
(1.04457 -0.000335413 0)
(1.04461 -0.00033486 0)
(1.04487 -0.000334669 0)
(1.04491 -0.000334266 0)
(1.04516 -0.000333966 0)
(1.0452 -0.000333681 0)
(1.04546 -0.000333286 0)
(1.0455 -0.000333076 0)
(1.04576 -0.000332631 0)
(1.04579 -0.000332448 0)
(1.04605 -0.000332006 0)
(1.04609 -0.000331793 0)
(1.04635 -0.000331401 0)
(1.04638 -0.000331103 0)
(1.04665 -0.000330784 0)
(1.04668 -0.000330353 0)
(1.04694 -0.000330107 0)
(1.04697 -0.000329522 0)
(1.04723 -0.000329329 0)
(1.04726 -0.000328602 0)
(1.04753 -0.000328439 0)
(1.04755 -0.000327623 0)
(1.04782 -0.000327475 0)
(1.04784 -0.000326654 0)
(1.04811 -0.000326518 0)
(1.04813 -0.000325795 0)
(1.0484 -0.000325682 0)
(1.04842 -0.000325151 0)
(1.04869 -0.000325079 0)
(1.04871 -0.000324809 0)
(1.04898 -0.000324791 0)
(1.04899 -0.000324811 0)
(1.04927 -0.000324847 0)
(1.04928 -0.00032514 0)
(1.04956 -0.00032521 0)
(1.04957 -0.000325713 0)
(1.04985 -0.000325766 0)
(0.999882 -3.73817e-05 0)
(1.00014 -0.000166267 0)
(1.00001 -0.000243161 0)
(1.00032 -0.000363242 0)
(1.00029 -0.000436239 0)
(1.00063 -0.000547833 0)
(1.00071 -0.000613848 0)
(1.00108 -0.000712825 0)
(1.00124 -0.000770559 0)
(1.00165 -0.000855986 0)
(1.00188 -0.000905385 0)
(1.00231 -0.000976811 0)
(1.0026 -0.00101837 0)
(1.00306 -0.00107659 0)
(1.00339 -0.00111128 0)
(1.00387 -0.00115793 0)
(1.00424 -0.00118695 0)
(1.00474 -0.00122409 0)
(1.00514 -0.00124878 0)
(1.00565 -0.0012785 0)
(1.00607 -0.00130014 0)
(1.0066 -0.00132432 0)
(1.00704 -0.00134388 0)
(1.00758 -0.00136396 0)
(1.00804 -0.00138191 0)
(1.00859 -0.0013988 0)
(1.00906 -0.00141505 0)
(1.00962 -0.00142916 0)
(1.01011 -0.00144318 0)
(1.01068 -0.00145445 0)
(1.01117 -0.00146548 0)
(1.01175 -0.00147353 0)
(1.01225 -0.00148079 0)
(1.01283 -0.00148506 0)
(1.01333 -0.00148794 0)
(1.01392 -0.00148789 0)
(1.01442 -0.00148602 0)
(1.01501 -0.0014812 0)
(1.0155 -0.00147442 0)
(1.01608 -0.0014646 0)
(1.01657 -0.00145293 0)
(1.01715 -0.00143811 0)
(1.01763 -0.00142174 0)
(1.01818 -0.00140214 0)
(1.01865 -0.00138141 0)
(1.01919 -0.00135747 0)
(1.01964 -0.00133286 0)
(1.02017 -0.00130524 0)
(1.02059 -0.0012774 0)
(1.0211 -0.00124694 0)
(1.0215 -0.00121671 0)
(1.02198 -0.00118438 0)
(1.02236 -0.00115271 0)
(1.02282 -0.00111956 0)
(1.02318 -0.00108749 0)
(1.02361 -0.00105454 0)
(1.02394 -0.00102309 0)
(1.02435 -0.000991233 0)
(1.02466 -0.000961294 0)
(1.02505 -0.000931229 0)
(1.02533 -0.000903478 0)
(1.0257 -0.000875669 0)
(1.02596 -0.000850506 0)
(1.02631 -0.000825193 0)
(1.02655 -0.000802725 0)
(1.02689 -0.000779965 0)
(1.02711 -0.000760047 0)
(1.02743 -0.000739773 0)
(1.02764 -0.000722091 0)
(1.02795 -0.000704151 0)
(1.02815 -0.000688339 0)
(1.02844 -0.00067253 0)
(1.02863 -0.00065827 0)
(1.02891 -0.000644352 0)
(1.02909 -0.000631448 0)
(1.02937 -0.000619154 0)
(1.02953 -0.000607552 0)
(1.0298 -0.000596612 0)
(1.02996 -0.000586358 0)
(1.03023 -0.000576529 0)
(1.03038 -0.000567702 0)
(1.03064 -0.000558808 0)
(1.03078 -0.000551433 0)
(1.03104 -0.000543389 0)
(1.03118 -0.00053739 0)
(1.03143 -0.000530202 0)
(1.03156 -0.000525395 0)
(1.03181 -0.000519128 0)
(1.03194 -0.000515257 0)
(1.03219 -0.000509982 0)
(1.03232 -0.000506785 0)
(1.03256 -0.000502527 0)
(1.03268 -0.0004998 0)
(1.03293 -0.000496501 0)
(1.03305 -0.000494129 0)
(1.03329 -0.000491645 0)
(1.03341 -0.000489605 0)
(1.03365 -0.000487738 0)
(1.03377 -0.000486063 0)
(1.03401 -0.000484607 0)
(1.03412 -0.000483341 0)
(1.03436 -0.000482129 0)
(1.03447 -0.000481287 0)
(1.03472 -0.000480219 0)
(1.03483 -0.000479771 0)
(1.03507 -0.000478813 0)
(1.03518 -0.000478686 0)
(1.03542 -0.000477847 0)
(1.03553 -0.000477945 0)
(1.03577 -0.00047724 0)
(1.03587 -0.000477467 0)
(1.03612 -0.000476893 0)
(1.03622 -0.000477165 0)
(1.03647 -0.000476685 0)
(1.03657 -0.000476936 0)
(1.03682 -0.000476481 0)
(1.03692 -0.000476656 0)
(1.03716 -0.00047615 0)
(1.03726 -0.0004762 0)
(1.03751 -0.000475575 0)
(1.03761 -0.000475449 0)
(1.03786 -0.000474663 0)
(1.03795 -0.000474313 0)
(1.0382 -0.000473355 0)
(1.0383 -0.000472741 0)
(1.03855 -0.000471619 0)
(1.03864 -0.000470717 0)
(1.03889 -0.000469446 0)
(1.03898 -0.000468258 0)
(1.03923 -0.00046684 0)
(1.03932 -0.000465394 0)
(1.03957 -0.000463814 0)
(1.03966 -0.000462158 0)
(1.03991 -0.000460382 0)
(1.03999 -0.000458572 0)
(1.04024 -0.000456569 0)
(1.04032 -0.000454657 0)
(1.04057 -0.00045241 0)
(1.04065 -0.000450436 0)
(1.0409 -0.000447961 0)
(1.04098 -0.000445948 0)
(1.04123 -0.000443307 0)
(1.0413 -0.000441265 0)
(1.04155 -0.000438562 0)
(1.04161 -0.000436495 0)
(1.04186 -0.000433862 0)
(1.04193 -0.00043178 0)
(1.04218 -0.000429358 0)
(1.04224 -0.000427284 0)
(1.04249 -0.000425197 0)
(1.04255 -0.000423169 0)
(1.0428 -0.000421505 0)
(1.04285 -0.000419572 0)
(1.0431 -0.000418364 0)
(1.04316 -0.000416578 0)
(1.04341 -0.0004158 0)
(1.04346 -0.000414209 0)
(1.04371 -0.000413779 0)
(1.04376 -0.000412414 0)
(1.04401 -0.000412213 0)
(1.04406 -0.000411088 0)
(1.04431 -0.000410981 0)
(1.04436 -0.000410091 0)
(1.04461 -0.000409958 0)
(1.04465 -0.000409284 0)
(1.04491 -0.000409042 0)
(1.04495 -0.000408552 0)
(1.04521 -0.000408172 0)
(1.04525 -0.000407824 0)
(1.0455 -0.000407326 0)
(1.04554 -0.000407072 0)
(1.0458 -0.000406512 0)
(1.04584 -0.00040629 0)
(1.0461 -0.000405739 0)
(1.04613 -0.000405481 0)
(1.04639 -0.000404995 0)
(1.04642 -0.00040463 0)
(1.04669 -0.000404239 0)