/*--------------------------------*- C++ -*----------------------------------*\
| =========                 |                                                 |
| \\      /  F ield         | OpenFOAM: The Open Source CFD Toolbox           |
|  \\    /   O peration     | Version:  2412                                  |
|   \\  /    A nd           | Website:  www.openfoam.com                      |
|    \\/     M anipulation  |                                                 |
\*---------------------------------------------------------------------------*/
FoamFile
{
    version     2.0;
    format      ascii;
    arch        "LSB;label=32;scalar=64";
    class       volScalarField;
    location    "300";
    object      p;
}
// * * * * * * * * * * * * * * * * * * * * * * * * * * * * * * * * * * * * * //

dimensions      [0 2 -2 0 0 0 0];

internalField   nonuniform List<scalar> 
8000
(
0.00314908
0.00291444
0.00293626
0.00283225
0.00281707
0.00276343
0.00273719
0.0027002
0.00267247
0.00264217
0.00261549
0.0025886
0.00256342
0.00253865
0.00251489
0.00249165
0.0024691
0.00244705
0.00242554
0.00240448
0.00238385
0.00236361
0.00234375
0.00232423
0.00230503
0.00228613
0.00226751
0.00224917
0.00223107
0.00221322
0.00219559
0.00217818
0.00216097
0.00214396
0.00212714
0.00211049
0.00209402
0.0020777
0.00206155
0.00204554
0.00202968
0.00201395
0.00199836
0.0019829
0.00196756
0.00195235
0.00193725
0.00192226
0.00190737
0.00189259
0.00187789
0.0018633
0.00184878
0.00183435
0.00182
0.00180575
0.00179158
0.00177754
0.00176358
0.00174976
0.00173604
0.0017225
0.00170906
0.00169583
0.00168269
0.00166977
0.00165693
0.00164432
0.00163174
0.00161939
0.001607
0.00159483
0.00158256
0.00157049
0.00155825
0.00154621
0.00153394
0.0015219
0.00150956
0.00149748
0.00148507
0.00147296
0.00146047
0.00144832
0.00143578
0.00142361
0.00141102
0.00139883
0.00138621
0.00137402
0.00136137
0.00134918
0.00133652
0.00132432
0.00131167
0.00129946
0.00128681
0.00127459
0.00126195
0.00124971
0.0012371
0.00122484
0.00121225
0.00119996
0.0011874
0.00117507
0.00116255
0.00115019
0.0011377
0.00112531
0.00111285
0.00110043
0.001088
0.00107555
0.00106315
0.00105067
0.00103829
0.00102579
0.00101344
0.00100092
0.000988576
0.000976046
0.000963715
0.000951176
0.000938853
0.000926306
0.000913992
0.000901435
0.000889132
0.000876561
0.000864275
0.000851686
0.000839419
0.00082681
0.000814563
0.000801936
0.000789703
0.000777066
0.000764838
0.000752202
0.000739968
0.000727344
0.000715092
0.000702489
0.000690214
0.000677637
0.000665335
0.000652784
0.000640456
0.000627929
0.000615581
0.000603071
0.000590709
0.00057821
0.000565839
0.000553347
0.000540972
0.000528482
0.000516104
0.000503618
0.000491236
0.000478755
0.000466368
0.00045389
0.000441501
0.000429025
0.000416635
0.00040416
0.000391768
0.000379294
0.000366902
0.000354428
0.000342036
0.000329562
0.000317171
0.000304696
0.000292305
0.00027983
0.00026744
0.000254963
0.000242575
0.000230097
0.000217709
0.000205232
0.000192842
0.000180368
0.000167974
0.000155504
0.000143105
0.000130641
0.000118237
0.000105777
9.33698e-05
8.09124e-05
6.8501e-05
5.60498e-05
4.36253e-05
3.11814e-05
1.8646e-05
6.23977e-06
0.00314918
0.00291442
0.00293621
0.00283226
0.00281705
0.00276343
0.00273719
0.0027002
0.00267247
0.00264217
0.00261549
0.0025886
0.00256342
0.00253865
0.00251488
0.00249165
0.0024691
0.00244705
0.00242554
0.00240448
0.00238385
0.00236361
0.00234375
0.00232423
0.00230503
0.00228613
0.00226751
0.00224917
0.00223107
0.00221322
0.00219559
0.00217818
0.00216097
0.00214396
0.00212714
0.00211049
0.00209401
0.0020777
0.00206155
0.00204554
0.00202968
0.00201395
0.00199836
0.0019829
0.00196756
0.00195235
0.00193725
0.00192226
0.00190737
0.00189259
0.00187789
0.0018633
0.00184877
0.00183435
0.00182
0.00180575
0.00179158
0.00177754
0.00176358
0.00174976
0.00173604
0.0017225
0.00170906
0.00169582
0.00168269
0.00166977
0.00165693
0.00164432
0.00163174
0.00161939
0.001607
0.00159483
0.00158256
0.00157049
0.00155825
0.00154621
0.00153394
0.0015219
0.00150956
0.00149748
0.00148507
0.00147296
0.00146047
0.00144832
0.00143578
0.00142361
0.00141102
0.00139883
0.00138621
0.00137402
0.00136137
0.00134918
0.00133652
0.00132432
0.00131167
0.00129946
0.00128681
0.00127459
0.00126195
0.00124971
0.0012371
0.00122483
0.00121225
0.00119996
0.0011874
0.00117507
0.00116255
0.00115019
0.0011377
0.00112531
0.00111285
0.00110043
0.001088
0.00107555
0.00106315
0.00105067
0.00103829
0.00102579
0.00101344
0.00100092
0.000988576
0.000976046
0.000963715
0.000951176
0.000938853
0.000926306
0.000913992
0.000901435
0.000889132
0.000876561
0.000864275
0.000851686
0.000839419
0.00082681
0.000814563
0.000801936
0.000789703
0.000777066
0.000764838
0.000752202
0.000739968
0.000727344
0.000715092
0.000702489
0.000690214
0.000677637
0.000665335
0.000652784
0.000640456
0.000627929
0.000615581
0.000603071
0.000590709
0.00057821
0.000565839
0.000553347
0.000540972
0.000528482
0.000516104
0.000503618
0.000491236
0.000478755
0.000466368
0.00045389
0.000441501
0.000429025
0.000416635
0.00040416
0.000391768
0.000379294
0.000366902
0.000354428
0.000342036
0.000329562
0.000317171
0.000304696
0.000292305
0.00027983
0.00026744
0.000254963
0.000242575
0.000230097
0.000217709
0.000205232
0.000192842
0.000180368
0.000167974
0.000155504
0.000143105
0.000130641
0.000118237
0.000105777
9.33698e-05
8.09125e-05
6.8501e-05
5.60498e-05
4.36253e-05
3.11815e-05
1.86455e-05
6.23924e-06
0.00314938
0.00291434
0.00293617
0.00283223
0.00281703
0.00276342
0.00273718
0.00270019
0.00267246
0.00264217
0.00261549
0.0025886
0.00256342
0.00253865
0.00251488
0.00249164
0.0024691
0.00244705
0.00242554
0.00240448
0.00238385
0.00236361
0.00234375
0.00232422
0.00230503
0.00228613
0.00226751
0.00224917
0.00223107
0.00221322
0.00219559
0.00217818
0.00216097
0.00214396
0.00212714
0.00211049
0.00209401
0.0020777
0.00206155
0.00204554
0.00202968
0.00201395
0.00199836
0.0019829
0.00196756
0.00195235
0.00193725
0.00192226
0.00190737
0.00189259
0.00187789
0.00186329
0.00184877
0.00183435
0.00182
0.00180575
0.00179158
0.00177754
0.00176358
0.00174976
0.00173604
0.0017225
0.00170906
0.00169582
0.00168269
0.00166977
0.00165693
0.00164432
0.00163174
0.00161939
0.001607
0.00159483
0.00158256
0.00157049
0.00155825
0.00154621
0.00153394
0.0015219
0.00150956
0.00149748
0.00148507
0.00147296
0.00146047
0.00144832
0.00143578
0.00142361
0.00141102
0.00139883
0.00138621
0.00137402
0.00136137
0.00134918
0.00133652
0.00132432
0.00131167
0.00129946
0.00128681
0.00127459
0.00126195
0.00124971
0.0012371
0.00122483
0.00121225
0.00119996
0.0011874
0.00117507
0.00116255
0.00115019
0.0011377
0.00112531
0.00111285
0.00110043
0.001088
0.00107555
0.00106315
0.00105067
0.00103829
0.00102579
0.00101344
0.00100092
0.000988576
0.000976046
0.000963715
0.000951176
0.000938853
0.000926306
0.000913992
0.000901435
0.000889132
0.000876561
0.000864275
0.000851686
0.000839419
0.00082681
0.000814563
0.000801936
0.000789703
0.000777066
0.000764838
0.000752202
0.000739968
0.000727344
0.000715092
0.000702489
0.000690214
0.000677637
0.000665335
0.000652784
0.000640456
0.000627929
0.000615581
0.000603071
0.000590709
0.00057821
0.000565839
0.000553347
0.000540972
0.000528482
0.000516104
0.000503618
0.000491236
0.000478755
0.000466368
0.00045389
0.000441501
0.000429025
0.000416635
0.00040416
0.000391768
0.000379294
0.000366902
0.000354428
0.000342036
0.000329562
0.000317171
0.000304696
0.000292305
0.00027983
0.00026744
0.000254963
0.000242575
0.000230097
0.000217709
0.000205232
0.000192842
0.000180368
0.000167974
0.000155504
0.000143105
0.000130641
0.000118237
0.000105777
9.33698e-05
8.09125e-05
6.8501e-05
5.60498e-05
4.36254e-05
3.11815e-05
1.8646e-05
6.23988e-06
0.0031497
0.0029142
0.00293611
0.0028322
0.00281701
0.00276341
0.00273717
0.00270018
0.00267245
0.00264216
0.00261548
0.00258859
0.00256341
0.00253865
0.00251488
0.00249164
0.00246909
0.00244705
0.00242554
0.00240447
0.00238385
0.00236361
0.00234375
0.00232422
0.00230502
0.00228613
0.00226751
0.00224916
0.00223107
0.00221322
0.00219559
0.00217818
0.00216097
0.00214396
0.00212714
0.00211049
0.00209401
0.0020777
0.00206154
0.00204554
0.00202967
0.00201395
0.00199836
0.0019829
0.00196756
0.00195235
0.00193724
0.00192226
0.00190737
0.00189259
0.00187789
0.00186329
0.00184877
0.00183435
0.00182
0.00180575
0.00179158
0.00177753
0.00176357
0.00174976
0.00173604
0.0017225
0.00170906
0.00169582
0.00168269
0.00166977
0.00165693
0.00164432
0.00163174
0.00161939
0.001607
0.00159483
0.00158256
0.00157049
0.00155825
0.00154621
0.00153394
0.0015219
0.00150956
0.00149748
0.00148507
0.00147296
0.00146047
0.00144832
0.00143578
0.00142361
0.00141102
0.00139883
0.00138621
0.00137402
0.00136137
0.00134918
0.00133652
0.00132432
0.00131167
0.00129946
0.00128681
0.00127459
0.00126195
0.00124971
0.0012371
0.00122483
0.00121225
0.00119996
0.0011874
0.00117507
0.00116255
0.00115019
0.0011377
0.00112531
0.00111285
0.00110043
0.001088
0.00107555
0.00106315
0.00105067
0.00103829
0.00102579
0.00101344
0.00100092
0.000988576
0.000976046
0.000963715
0.000951176
0.000938853
0.000926306
0.000913992
0.000901435
0.000889132
0.000876561
0.000864275
0.000851686
0.000839419
0.00082681
0.000814563
0.000801936
0.000789703
0.000777066
0.000764838
0.000752202
0.000739968
0.000727344
0.000715092
0.000702489
0.000690214
0.000677637
0.000665335
0.000652784
0.000640456
0.000627929
0.000615581
0.000603071
0.000590709
0.00057821
0.000565839
0.000553347
0.000540972
0.000528482
0.000516104
0.000503618
0.000491236
0.000478755
0.000466368
0.00045389
0.000441501
0.000429025
0.000416635
0.00040416
0.000391768
0.000379294
0.000366902
0.000354428
0.000342036
0.000329562
0.000317171
0.000304696
0.000292305
0.00027983
0.00026744
0.000254963
0.000242575
0.000230097
0.000217709
0.000205232
0.000192842
0.000180368
0.000167974
0.000155504
0.000143105
0.000130641
0.000118237
0.000105777
9.33698e-05
8.09124e-05
6.8501e-05
5.60498e-05
4.36255e-05
3.11816e-05
1.86477e-05
6.2416e-06
0.00315012
0.00291402
0.00293602
0.00283215
0.00281698
0.00276339
0.00273715
0.00270017
0.00267244
0.00264215
0.00261547
0.00258859
0.00256341
0.00253864
0.00251487
0.00249164
0.00246909
0.00244705
0.00242553
0.00240447
0.00238384
0.00236361
0.00234374
0.00232422
0.00230502
0.00228612
0.00226751
0.00224916
0.00223107
0.00221322
0.00219559
0.00217818
0.00216097
0.00214396
0.00212713
0.00211049
0.00209401
0.0020777
0.00206154
0.00204554
0.00202967
0.00201395
0.00199836
0.0019829
0.00196756
0.00195234
0.00193724
0.00192226
0.00190737
0.00189259
0.00187789
0.00186329
0.00184877
0.00183435
0.00182
0.00180575
0.00179158
0.00177753
0.00176357
0.00174976
0.00173604
0.0017225
0.00170906
0.00169582
0.00168268
0.00166977
0.00165693
0.00164432
0.00163174
0.00161938
0.001607
0.00159483
0.00158256
0.00157049
0.00155825
0.00154621
0.00153394
0.0015219
0.00150956
0.00149748
0.00148507
0.00147296
0.00146047
0.00144832
0.00143578
0.00142361
0.00141102
0.00139883
0.00138621
0.00137402
0.00136137
0.00134918
0.00133652
0.00132432
0.00131167
0.00129946
0.00128681
0.00127459
0.00126195
0.00124971
0.0012371
0.00122483
0.00121225
0.00119996
0.0011874
0.00117507
0.00116255
0.00115019
0.0011377
0.00112531
0.00111285
0.00110043
0.001088
0.00107555
0.00106315
0.00105067
0.00103829
0.00102579
0.00101344
0.00100092
0.000988576
0.000976046
0.000963715
0.000951176
0.000938853
0.000926306
0.000913992
0.000901435
0.000889132
0.000876561
0.000864275
0.000851686
0.000839419
0.00082681
0.000814563
0.000801936
0.000789703
0.000777066
0.000764838
0.000752202
0.000739968
0.000727344
0.000715092
0.000702489
0.000690214
0.000677637
0.000665335
0.000652784
0.000640456
0.000627929
0.000615581
0.000603071
0.000590709
0.00057821
0.000565839
0.000553347
0.000540972
0.000528482
0.000516104
0.000503618
0.000491236
0.000478755
0.000466368
0.00045389
0.000441501
0.000429025
0.000416635
0.00040416
0.000391768
0.000379294
0.000366902
0.000354428
0.000342036
0.000329562
0.000317171
0.000304696
0.000292305
0.00027983
0.00026744
0.000254963
0.000242575
0.000230097
0.000217709
0.000205232
0.000192842
0.000180368
0.000167974
0.000155504
0.000143105
0.000130641
0.000118237
0.000105777
9.33698e-05
8.09124e-05
6.85011e-05
5.60498e-05
4.36256e-05
3.11818e-05
1.86502e-05
6.24423e-06
0.00315064
0.00291379
0.00293592
0.00283209
0.00281694
0.00276337
0.00273713
0.00270016
0.00267243
0.00264214
0.00261547
0.00258858
0.0025634
0.00253864
0.00251487
0.00249163
0.00246909
0.00244704
0.00242553
0.00240447
0.00238384
0.0023636
0.00234374
0.00232422
0.00230502
0.00228612
0.00226751
0.00224916
0.00223107
0.00221321
0.00219559
0.00217818
0.00216097
0.00214396
0.00212713
0.00211049
0.00209401
0.0020777
0.00206154
0.00204554
0.00202967
0.00201395
0.00199836
0.0019829
0.00196756
0.00195234
0.00193724
0.00192226
0.00190737
0.00189259
0.00187789
0.00186329
0.00184877
0.00183435
0.00182
0.00180575
0.00179158
0.00177753
0.00176357
0.00174976
0.00173604
0.0017225
0.00170906
0.00169582
0.00168268
0.00166977
0.00165693
0.00164432
0.00163174
0.00161938
0.001607
0.00159483
0.00158256
0.00157049
0.00155825
0.00154621
0.00153394
0.0015219
0.00150956
0.00149748
0.00148507
0.00147296
0.00146047
0.00144832
0.00143578
0.00142361
0.00141102
0.00139883
0.00138621
0.00137402
0.00136137
0.00134918
0.00133652
0.00132432
0.00131167
0.00129946
0.00128681
0.00127459
0.00126195
0.00124971
0.0012371
0.00122483
0.00121225
0.00119996
0.0011874
0.00117507
0.00116255
0.00115019
0.0011377
0.00112531
0.00111285
0.00110043
0.001088
0.00107555
0.00106315
0.00105067
0.00103829
0.00102579
0.00101344
0.00100092
0.000988576
0.000976046
0.000963715
0.000951176
0.000938853
0.000926306
0.000913992
0.000901435
0.000889132
0.000876561
0.000864275
0.000851686
0.000839419
0.00082681
0.000814563
0.000801936
0.000789703
0.000777066
0.000764838
0.000752202
0.000739968
0.000727344
0.000715092
0.000702489
0.000690214
0.000677637
0.000665335
0.000652784
0.000640456
0.000627929
0.000615581
0.000603071
0.000590708
0.00057821
0.000565839
0.000553347
0.000540972
0.000528482
0.000516104
0.000503618
0.000491236
0.000478755
0.000466368
0.00045389
0.000441501
0.000429025
0.000416635
0.00040416
0.000391768
0.000379294
0.000366902
0.000354429
0.000342036
0.000329562
0.000317171
0.000304696
0.000292305
0.00027983
0.00026744
0.000254963
0.000242575
0.000230097
0.000217709
0.000205232
0.000192842
0.000180368
0.000167974
0.000155504
0.000143105
0.000130641
0.000118237
0.000105777
9.33698e-05
8.09124e-05
6.85011e-05
5.60498e-05
4.36258e-05
3.1182e-05
1.86536e-05
6.2477e-06
0.00315127
0.00291352
0.0029358
0.00283202
0.00281689
0.00276334
0.00273711
0.00270014
0.00267242
0.00264213
0.00261545
0.00258857
0.00256339
0.00253863
0.00251486
0.00249163
0.00246908
0.00244704
0.00242553
0.00240446
0.00238384
0.0023636
0.00234374
0.00232422
0.00230502
0.00228612
0.0022675
0.00224916
0.00223107
0.00221321
0.00219558
0.00217817
0.00216097
0.00214396
0.00212713
0.00211049
0.00209401
0.0020777
0.00206154
0.00204553
0.00202967
0.00201395
0.00199836
0.00198289
0.00196756
0.00195234
0.00193724
0.00192225
0.00190737
0.00189259
0.00187789
0.00186329
0.00184877
0.00183435
0.00182
0.00180575
0.00179158
0.00177753
0.00176357
0.00174976
0.00173604
0.0017225
0.00170906
0.00169582
0.00168268
0.00166977
0.00165693
0.00164432
0.00163174
0.00161938
0.001607
0.00159483
0.00158255
0.00157049
0.00155825
0.00154621
0.00153394
0.0015219
0.00150956
0.00149748
0.00148507
0.00147296
0.00146047
0.00144833
0.00143578
0.00142361
0.00141102
0.00139883
0.00138621
0.00137402
0.00136137
0.00134918
0.00133652
0.00132432
0.00131167
0.00129946
0.00128681
0.00127459
0.00126195
0.00124971
0.0012371
0.00122483
0.00121225
0.00119996
0.0011874
0.00117507
0.00116255
0.00115019
0.0011377
0.00112531
0.00111285
0.00110043
0.001088
0.00107555
0.00106315
0.00105067
0.00103829
0.00102579
0.00101344
0.00100092
0.000988576
0.000976046
0.000963715
0.000951176
0.000938853
0.000926306
0.000913992
0.000901435
0.000889132
0.000876561
0.000864275
0.000851686
0.000839419
0.00082681
0.000814563
0.000801936
0.000789703
0.000777066
0.000764838
0.000752202
0.000739968
0.000727344
0.000715092
0.000702489
0.000690214
0.000677637
0.000665335
0.000652784
0.000640456
0.000627929
0.000615581
0.000603071
0.000590708
0.00057821
0.000565839
0.000553347
0.000540972
0.000528482
0.000516104
0.000503618
0.000491236
0.000478755
0.000466368
0.00045389
0.000441501
0.000429025
0.000416635
0.00040416
0.000391768
0.000379294
0.000366902
0.000354429
0.000342036
0.000329562
0.000317171
0.000304696
0.000292305
0.00027983
0.00026744
0.000254963
0.000242575
0.000230097
0.000217709
0.000205232
0.000192842
0.000180368
0.000167974
0.000155504
0.000143105
0.000130641
0.000118237
0.000105777
9.33698e-05
8.09124e-05
6.85011e-05
5.60497e-05
4.3626e-05
3.11823e-05
1.86577e-05
6.25195e-06
0.00315201
0.0029132
0.00293565
0.00283193
0.00281683
0.0027633
0.00273708
0.00270012
0.0026724
0.00264212
0.00261544
0.00258856
0.00256338
0.00253862
0.00251486
0.00249162
0.00246907
0.00244703
0.00242552
0.00240446
0.00238383
0.0023636
0.00234373
0.00232421
0.00230501
0.00228611
0.0022675
0.00224916
0.00223106
0.00221321
0.00219558
0.00217817
0.00216096
0.00214395
0.00212713
0.00211048
0.00209401
0.0020777
0.00206154
0.00204553
0.00202967
0.00201395
0.00199835
0.00198289
0.00196756
0.00195234
0.00193724
0.00192225
0.00190737
0.00189259
0.00187789
0.00186329
0.00184877
0.00183435
0.00182
0.00180575
0.00179158
0.00177753
0.00176357
0.00174975
0.00173604
0.00172249
0.00170905
0.00169582
0.00168268
0.00166976
0.00165692
0.00164431
0.00163174
0.00161938
0.001607
0.00159483
0.00158255
0.00157049
0.00155825
0.00154621
0.00153394
0.0015219
0.00150956
0.00149749
0.00148508
0.00147296
0.00146047
0.00144833
0.00143578
0.00142361
0.00141102
0.00139883
0.00138621
0.00137402
0.00136137
0.00134918
0.00133652
0.00132432
0.00131167
0.00129946
0.00128681
0.00127459
0.00126195
0.00124971
0.0012371
0.00122483
0.00121225
0.00119996
0.0011874
0.00117507
0.00116255
0.00115019
0.0011377
0.00112531
0.00111285
0.00110043
0.001088
0.00107555
0.00106315
0.00105067
0.00103829
0.00102579
0.00101344
0.00100092
0.000988576
0.000976046
0.000963715
0.000951176
0.000938853
0.000926306
0.000913992
0.000901435
0.000889132
0.000876561
0.000864275
0.000851686
0.000839419
0.00082681
0.000814563
0.000801936
0.000789703
0.000777066
0.000764838
0.000752202
0.000739968
0.000727344
0.000715092
0.000702489
0.000690214
0.000677637
0.000665335
0.000652784
0.000640456
0.000627929
0.000615581
0.000603071
0.000590708
0.00057821
0.000565839
0.000553347
0.000540972
0.000528482
0.000516104
0.000503618
0.000491236
0.000478755
0.000466368
0.00045389
0.000441501
0.000429025
0.000416635
0.00040416
0.000391768
0.000379294
0.000366902
0.000354429
0.000342036
0.000329562
0.000317171
0.000304696
0.000292305
0.00027983
0.00026744
0.000254963
0.000242575
0.000230097
0.000217709
0.000205232
0.000192842
0.000180368
0.000167974
0.000155504
0.000143105
0.000130641
0.000118237
0.000105777
9.33698e-05
8.09124e-05
6.85011e-05
5.60497e-05
4.36262e-05
3.11825e-05
1.86625e-05
6.25691e-06
0.00315285
0.00291283
0.00293549
0.00283183
0.00281677
0.00276327
0.00273705
0.0027001
0.00267238
0.0026421
0.00261543
0.00258855
0.00256337
0.00253861
0.00251485
0.00249161
0.00246907
0.00244702
0.00242551
0.00240445
0.00238383
0.00236359
0.00234373
0.00232421
0.00230501
0.00228611
0.0022675
0.00224915
0.00223106
0.00221321
0.00219558
0.00217817
0.00216096
0.00214395
0.00212713
0.00211048
0.00209401
0.00207769
0.00206154
0.00204553
0.00202967
0.00201394
0.00199835
0.00198289
0.00196755
0.00195234
0.00193724
0.00192225
0.00190737
0.00189258
0.00187789
0.00186329
0.00184877
0.00183434
0.00181999
0.00180575
0.00179158
0.00177753
0.00176357
0.00174975
0.00173604
0.00172249
0.00170905
0.00169582
0.00168268
0.00166976
0.00165692
0.00164431
0.00163174
0.00161938
0.001607
0.00159483
0.00158255
0.00157048
0.00155825
0.00154621
0.00153394
0.0015219
0.00150956
0.00149749
0.00148508
0.00147296
0.00146047
0.00144833
0.00143578
0.00142361
0.00141102
0.00139883
0.00138621
0.00137402
0.00136137
0.00134918
0.00133652
0.00132432
0.00131167
0.00129946
0.00128681
0.00127459
0.00126195
0.00124971
0.0012371
0.00122483
0.00121225
0.00119996
0.0011874
0.00117507
0.00116255
0.00115019
0.0011377
0.00112531
0.00111285
0.00110043
0.001088
0.00107555
0.00106315
0.00105067
0.00103829
0.00102579
0.00101344
0.00100092
0.000988576
0.000976046
0.000963715
0.000951176
0.000938853
0.000926306
0.000913992
0.000901435
0.000889132
0.000876561
0.000864275
0.000851686
0.000839419
0.00082681
0.000814563
0.000801936
0.000789703
0.000777066
0.000764838
0.000752202
0.000739968
0.000727344
0.000715092
0.000702489
0.000690214
0.000677637
0.000665335
0.000652784
0.000640456
0.000627929
0.000615581
0.000603071
0.000590708
0.00057821
0.000565839
0.000553347
0.000540972
0.000528482
0.000516104
0.000503618
0.000491236
0.000478755
0.000466368
0.00045389
0.000441501
0.000429025
0.000416635
0.00040416
0.000391768
0.000379294
0.000366902
0.000354429
0.000342036
0.000329562
0.000317171
0.000304696
0.000292305
0.00027983
0.00026744
0.000254963
0.000242575
0.000230097
0.000217709
0.000205232
0.000192842
0.000180368
0.000167974
0.000155504
0.000143105
0.000130641
0.000118237
0.000105777
9.33698e-05
8.09124e-05
6.85011e-05
5.60497e-05
4.36265e-05
3.11829e-05
1.86679e-05
6.2625e-06
0.00315379
0.00291242
0.0029353
0.00283172
0.00281669
0.00276322
0.00273702
0.00270007
0.00267236
0.00264208
0.00261541
0.00258853
0.00256336
0.0025386
0.00251484
0.0024916
0.00246906
0.00244702
0.00242551
0.00240445
0.00238382
0.00236359
0.00234372
0.0023242
0.002305
0.00228611
0.00226749
0.00224915
0.00223106
0.0022132
0.00219558
0.00217817
0.00216096
0.00214395
0.00212712
0.00211048
0.002094
0.00207769
0.00206154
0.00204553
0.00202967
0.00201394
0.00199835
0.00198289
0.00196755
0.00195234
0.00193724
0.00192225
0.00190737
0.00189258
0.00187789
0.00186329
0.00184877
0.00183434
0.00181999
0.00180575
0.00179158
0.00177753
0.00176357
0.00174975
0.00173603
0.00172249
0.00170905
0.00169581
0.00168268
0.00166976
0.00165692
0.00164431
0.00163173
0.00161938
0.001607
0.00159483
0.00158255
0.00157048
0.00155825
0.00154621
0.00153394
0.0015219
0.00150956
0.00149749
0.00148508
0.00147296
0.00146047
0.00144833
0.00143578
0.00142361
0.00141102
0.00139883
0.00138621
0.00137402
0.00136137
0.00134918
0.00133652
0.00132432
0.00131167
0.00129946
0.00128681
0.00127459
0.00126195
0.00124971
0.0012371
0.00122483
0.00121225
0.00119996
0.0011874
0.00117507
0.00116255
0.00115019
0.0011377
0.00112531
0.00111285
0.00110043
0.001088
0.00107555
0.00106315
0.00105067
0.00103829
0.00102579
0.00101344
0.00100092
0.000988576
0.000976046
0.000963715
0.000951176
0.000938853
0.000926306
0.000913992
0.000901435
0.000889132
0.000876562
0.000864275
0.000851686
0.000839419
0.00082681
0.000814563
0.000801936
0.000789703
0.000777066
0.000764838
0.000752202
0.000739968
0.000727344
0.000715092
0.000702489
0.000690214
0.000677637
0.000665335
0.000652784
0.000640456
0.000627929
0.000615581
0.000603071
0.000590708
0.00057821
0.000565839
0.000553347
0.000540972
0.000528482
0.000516104
0.000503618
0.000491236
0.000478755
0.000466368
0.00045389
0.000441501
0.000429025
0.000416635
0.00040416
0.000391768
0.000379294
0.000366902
0.000354429
0.000342036
0.000329562
0.000317171
0.000304696
0.000292305
0.00027983
0.00026744
0.000254963
0.000242575
0.000230097
0.000217709
0.000205232
0.000192842
0.000180368
0.000167974
0.000155504
0.000143105
0.000130641
0.000118237
0.000105777
9.33698e-05
8.09124e-05
6.85012e-05
5.60497e-05
4.36268e-05
3.11832e-05
1.86738e-05
6.26862e-06
0.00315485
0.00291196
0.00293509
0.0028316
0.00281661
0.00276317
0.00273698
0.00270004
0.00267234
0.00264206
0.0026154
0.00258852
0.00256335
0.00253859
0.00251483
0.00249159
0.00246905
0.00244701
0.0024255
0.00240444
0.00238381
0.00236358
0.00234372
0.0023242
0.002305
0.0022861
0.00226749
0.00224914
0.00223105
0.0022132
0.00219557
0.00217816
0.00216096
0.00214395
0.00212712
0.00211048
0.002094
0.00207769
0.00206153
0.00204553
0.00202966
0.00201394
0.00199835
0.00198289
0.00196755
0.00195234
0.00193724
0.00192225
0.00190736
0.00189258
0.00187789
0.00186329
0.00184877
0.00183434
0.00181999
0.00180574
0.00179158
0.00177753
0.00176357
0.00174975
0.00173603
0.00172249
0.00170905
0.00169581
0.00168267
0.00166976
0.00165692
0.00164431
0.00163173
0.00161938
0.001607
0.00159482
0.00158255
0.00157048
0.00155825
0.00154621
0.00153394
0.0015219
0.00150957
0.00149749
0.00148508
0.00147296
0.00146047
0.00144833
0.00143578
0.00142361
0.00141102
0.00139883
0.00138621
0.00137402
0.00136137
0.00134918
0.00133652
0.00132432
0.00131167
0.00129946
0.00128681
0.00127459
0.00126195
0.00124971
0.0012371
0.00122483
0.00121225
0.00119996
0.0011874
0.00117507
0.00116255
0.00115019
0.0011377
0.00112531
0.00111285
0.00110043
0.001088
0.00107555
0.00106315
0.00105067
0.00103829
0.00102579
0.00101344
0.00100092
0.000988576
0.000976046
0.000963715
0.000951176
0.000938853
0.000926306
0.000913992
0.000901435
0.000889132
0.000876562
0.000864275
0.000851686
0.000839419
0.00082681
0.000814563
0.000801936
0.000789703
0.000777066
0.000764838
0.000752202
0.000739968
0.000727344
0.000715092
0.000702489
0.000690214
0.000677637
0.000665335
0.000652784
0.000640456
0.000627929
0.000615581
0.000603071
0.000590708
0.00057821
0.000565839
0.000553347
0.000540972
0.000528482
0.000516104
0.000503618
0.000491236
0.000478755
0.000466368
0.00045389
0.000441501
0.000429025
0.000416635
0.00040416
0.000391768
0.000379294
0.000366902
0.000354429
0.000342036
0.000329562
0.000317171
0.000304696
0.000292305
0.00027983
0.00026744
0.000254963
0.000242575
0.000230097
0.000217709
0.000205232
0.000192842
0.000180368
0.000167974
0.000155504
0.000143105
0.000130641
0.000118237
0.000105777
9.33698e-05
8.09124e-05
6.85012e-05
5.60497e-05
4.36271e-05
3.11836e-05
1.86802e-05
6.27517e-06
0.00315601
0.00291145
0.00293486
0.00283146
0.00281653
0.00276312
0.00273694
0.00270001
0.00267231
0.00264204
0.00261538
0.0025885
0.00256333
0.00253858
0.00251481
0.00249158
0.00246904
0.002447
0.00242549
0.00240443
0.00238381
0.00236357
0.00234371
0.00232419
0.00230499
0.0022861
0.00226748
0.00224914
0.00223105
0.00221319
0.00219557
0.00217816
0.00216095
0.00214394
0.00212712
0.00211047
0.002094
0.00207769
0.00206153
0.00204552
0.00202966
0.00201394
0.00199835
0.00198289
0.00196755
0.00195234
0.00193724
0.00192225
0.00190736
0.00189258
0.00187789
0.00186329
0.00184877
0.00183434
0.00181999
0.00180574
0.00179157
0.00177753
0.00176356
0.00174975
0.00173603
0.00172249
0.00170905
0.00169581
0.00168267
0.00166976
0.00165692
0.00164431
0.00163173
0.00161938
0.00160699
0.00159482
0.00158255
0.00157048
0.00155825
0.00154621
0.00153394
0.0015219
0.00150957
0.00149749
0.00148508
0.00147296
0.00146048
0.00144833
0.00143578
0.00142361
0.00141102
0.00139883
0.00138621
0.00137402
0.00136137
0.00134918
0.00133652
0.00132432
0.00131167
0.00129946
0.00128681
0.00127459
0.00126195
0.00124971
0.0012371
0.00122483
0.00121225
0.00119996
0.0011874
0.00117507
0.00116255
0.00115019
0.0011377
0.00112531
0.00111285
0.00110043
0.001088
0.00107555
0.00106315
0.00105067
0.00103829
0.00102579
0.00101344
0.00100092
0.000988576
0.000976046
0.000963715
0.000951176
0.000938853
0.000926306
0.000913992
0.000901435
0.000889132
0.000876562
0.000864275
0.000851686
0.000839419
0.00082681
0.000814563
0.000801936
0.000789703
0.000777066
0.000764838
0.000752202
0.000739968
0.000727344
0.000715092
0.000702489
0.000690214
0.000677637
0.000665334
0.000652784
0.000640456
0.000627929
0.000615581
0.000603071
0.000590708
0.00057821
0.000565839
0.000553347
0.000540972
0.000528482
0.000516104
0.000503618
0.000491236
0.000478755
0.000466368
0.00045389
0.000441501
0.000429025
0.000416635
0.00040416
0.000391768
0.000379294
0.000366902
0.000354429
0.000342036
0.000329562
0.000317171
0.000304696
0.000292305
0.00027983
0.00026744
0.000254963
0.000242575
0.000230097
0.000217709
0.000205232
0.000192842
0.000180368
0.000167974
0.000155504
0.000143105
0.000130641
0.000118237
0.000105777
9.33698e-05
8.09124e-05
6.85012e-05
5.60497e-05
4.36275e-05
3.11839e-05
1.86868e-05
6.28205e-06
0.00315727
0.00291089
0.00293461
0.00283132
0.00281643
0.00276306
0.0027369
0.00269998
0.00267229
0.00264202
0.00261536
0.00258848
0.00256332
0.00253856
0.0025148
0.00249157
0.00246903
0.00244699
0.00242548
0.00240442
0.0023838
0.00236357
0.0023437
0.00232418
0.00230499
0.00228609
0.00226748
0.00224914
0.00223104
0.00221319
0.00219556
0.00217815
0.00216095
0.00214394
0.00212712
0.00211047
0.002094
0.00207768
0.00206153
0.00204552
0.00202966
0.00201394
0.00199834
0.00198288
0.00196755
0.00195233
0.00193723
0.00192225
0.00190736
0.00189258
0.00187789
0.00186329
0.00184877
0.00183434
0.00181999
0.00180574
0.00179157
0.00177752
0.00176356
0.00174975
0.00173603
0.00172248
0.00170904
0.00169581
0.00168267
0.00166975
0.00165692
0.00164431
0.00163173
0.00161938
0.00160699
0.00159482
0.00158255
0.00157048
0.00155824
0.00154621
0.00153394
0.0015219
0.00150957
0.00149749
0.00148508
0.00147296
0.00146048
0.00144833
0.00143578
0.00142361
0.00141102
0.00139883
0.00138621
0.00137402
0.00136137
0.00134918
0.00133652
0.00132432
0.00131167
0.00129946
0.00128681
0.00127459
0.00126195
0.00124971
0.0012371
0.00122483
0.00121225
0.00119996
0.0011874
0.00117507
0.00116255
0.00115019
0.0011377
0.00112531
0.00111285
0.00110043
0.001088
0.00107555
0.00106315
0.00105067
0.00103829
0.00102579
0.00101344
0.00100092
0.000988576
0.000976046
0.000963715
0.000951176
0.000938853
0.000926306
0.000913992
0.000901435
0.000889132
0.000876562
0.000864275
0.000851686
0.000839419
0.00082681
0.000814563
0.000801936
0.000789703
0.000777066
0.000764838
0.000752202
0.000739968
0.000727344
0.000715092
0.000702489
0.000690214
0.000677637
0.000665334
0.000652784
0.000640456
0.000627929
0.000615581
0.000603071
0.000590708
0.00057821
0.000565839
0.000553347
0.000540972
0.000528482
0.000516104
0.000503618
0.000491236
0.000478755
0.000466368
0.00045389
0.000441501
0.000429025
0.000416635
0.00040416
0.000391768
0.000379294
0.000366902
0.000354429
0.000342036
0.000329562
0.000317171
0.000304696
0.000292305
0.00027983
0.00026744