/*--------------------------------*- C++ -*----------------------------------*\
| =========                 |                                                 |
| \\      /  F ield         | OpenFOAM: The Open Source CFD Toolbox           |
|  \\    /   O peration     | Version:  2412                                  |
|   \\  /    A nd           | Website:  www.openfoam.com                      |
|    \\/     M anipulation  |                                                 |
\*---------------------------------------------------------------------------*/
FoamFile
{
    version     2.0;
    format      ascii;
    arch        "LSB;label=32;scalar=64";
    class       surfaceScalarField;
    location    "300";
    object      phi;
}
// * * * * * * * * * * * * * * * * * * * * * * * * * * * * * * * * * * * * * //

dimensions      [0 3 -1 0 0 0 0];

oriented        oriented;

internalField   nonuniform List<scalar> 
15760
(
1.31109e-08
-6.1095e-10
1.3527e-08
-4.16012e-10
1.37776e-08
-2.50656e-10
1.40115e-08
-2.33881e-10
1.41854e-08
-1.73853e-10
1.43506e-08
-1.65214e-10
1.44948e-08
-1.44269e-10
1.46315e-08
-1.36687e-10
1.4758e-08
-1.26454e-10
1.48782e-08
-1.20272e-10
1.49921e-08
-1.13871e-10
1.51011e-08
-1.08984e-10
1.52055e-08
-1.04375e-10
1.53059e-08
-1.00466e-10
1.54028e-08
-9.68606e-11
1.54964e-08
-9.36397e-11
1.55871e-08
-9.06574e-11
1.5675e-08
-8.79107e-11
1.57604e-08
-8.53361e-11
1.58433e-08
-8.29154e-11
1.59239e-08
-8.06165e-11
1.60023e-08
-7.84231e-11
1.60786e-08
-7.63169e-11
1.61529e-08
-7.42866e-11
1.62252e-08
-7.23215e-11
1.62956e-08
-7.0414e-11
1.63642e-08
-6.85579e-11
1.6431e-08
-6.67486e-11
1.64959e-08
-6.49825e-11
1.65592e-08
-6.32574e-11
1.66208e-08
-6.15716e-11
1.66807e-08
-5.99234e-11
1.6739e-08
-5.83109e-11
1.67957e-08
-5.67328e-11
1.68509e-08
-5.51884e-11
1.69046e-08
-5.36785e-11
1.69568e-08
-5.22047e-11
1.70076e-08
-5.07684e-11
1.70569e-08
-4.93689e-11
1.71049e-08
-4.80031e-11
1.71516e-08
-4.66655e-11
1.7197e-08
-4.53511e-11
1.7241e-08
-4.40579e-11
1.72838e-08
-4.27894e-11
1.73254e-08
-4.1555e-11
1.73657e-08
-4.03674e-11
1.7405e-08
-3.92402e-11
1.74431e-08
-3.81804e-11
1.74803e-08
-3.71884e-11
1.75166e-08
-3.62501e-11
1.75519e-08
-3.53439e-11
1.75864e-08
-3.44342e-11
1.76199e-08
-3.34853e-11
1.76523e-08
-3.2451e-11
1.76836e-08
-3.12963e-11
1.77136e-08
-2.99766e-11
1.7742e-08
-2.84695e-11
1.77688e-08
-2.674e-11
1.77936e-08
-2.47881e-11
1.78162e-08
-2.25949e-11
1.78364e-08
-2.01938e-11
1.78539e-08
-1.75874e-11
1.78688e-08
-1.48515e-11
1.78808e-08
-1.20102e-11
1.789e-08
-9.18219e-12
1.78964e-08
-6.39788e-12
1.79002e-08
-3.80588e-12
1.79016e-08
-1.41225e-12
1.7901e-08
6.27261e-13
1.78986e-08
2.36635e-12
1.7895e-08
3.65848e-12
1.78903e-08
4.64086e-12
1.78851e-08
5.17211e-12
1.78797e-08
5.4766e-12
1.78743e-08
5.39312e-12
1.78691e-08
5.22284e-12
1.78643e-08
4.75047e-12
1.786e-08
4.34318e-12
1.78563e-08
3.70119e-12
1.7853e-08
3.25566e-12
1.78504e-08
2.60221e-12
1.78482e-08
2.24448e-12
1.78465e-08
1.6627e-12
1.7845e-08
1.44791e-12
1.78441e-08
9.5993e-13
1.78432e-08
8.93385e-13
1.78427e-08
4.84957e-13
1.78422e-08
5.46197e-13
1.7842e-08
1.88831e-13
1.78416e-08
3.49867e-13
1.78416e-08
1.53697e-14
1.78414e-08
2.50652e-13
1.78414e-08
-8.22284e-14
1.78412e-08
2.07651e-13
1.78414e-08
-1.36468e-13
1.78412e-08
1.93862e-13
1.78413e-08
-1.67169e-13
1.78411e-08
1.93247e-13
1.78413e-08
-1.8506e-13
1.78411e-08
1.97032e-13
1.78413e-08
-1.95405e-13
1.78411e-08
2.00706e-13
1.78413e-08
-2.00429e-13
1.78411e-08
2.02044e-13
1.78413e-08
-2.0098e-13
1.78411e-08
1.99971e-13
1.78413e-08
-1.97238e-13
1.78411e-08
1.93924e-13
1.78413e-08
-1.89142e-13
1.78411e-08
1.83507e-13
1.78413e-08
-1.76398e-13
1.78411e-08
1.68255e-13
1.78413e-08
-1.58536e-13
1.78412e-08
1.47603e-13
1.78413e-08
-1.34998e-13
1.78412e-08
1.21127e-13
1.78413e-08
-1.05713e-13
1.78412e-08
8.92914e-14
1.78413e-08
-7.19789e-14
1.78412e-08
5.46503e-14
1.78412e-08
-3.78992e-14
1.78412e-08
2.29132e-14
1.78412e-08
-1.07761e-14
1.78412e-08
2.78135e-15
1.78412e-08
3.84753e-17
1.78412e-08
3.16206e-15
1.78412e-08
-1.26261e-14
1.78412e-08
2.7989e-14
1.78413e-08
-4.79943e-14
1.78412e-08
7.08793e-14
1.78413e-08
-9.38697e-14
1.78412e-08
1.14361e-13
1.78413e-08
-1.29183e-13
1.78412e-08
1.3635e-13
1.78413e-08
-1.33835e-13
1.78412e-08
1.21591e-13
1.78413e-08
-9.97731e-14
1.78412e-08
7.04417e-14
1.78412e-08
-3.55189e-14
1.78412e-08
-2.00773e-15
1.78412e-08
3.97502e-14
1.78413e-08
-7.52445e-14
1.78412e-08
1.06773e-13
1.78413e-08
-1.33032e-13
1.78411e-08
1.53095e-13
1.78413e-08
-1.66536e-13
1.78411e-08
1.72978e-13
1.78413e-08
-1.72502e-13
1.78411e-08
1.6525e-13
1.78413e-08
-1.52052e-13
1.78412e-08
1.34034e-13
1.78413e-08
-1.12966e-13
1.78412e-08
9.09211e-14
1.78413e-08
-7.01216e-14
1.78412e-08
5.25774e-14
1.78412e-08
-3.95288e-14
1.78412e-08
3.14484e-14
1.78412e-08
-2.74777e-14
1.78412e-08
2.62417e-14
1.78412e-08
-2.57198e-14
1.78412e-08
2.43872e-14
1.78412e-08
-2.12459e-14
1.78412e-08
1.66284e-14
1.78412e-08
-1.13273e-14
1.78412e-08
6.75058e-15
1.78412e-08
-3.50624e-15
1.78412e-08
1.81425e-15
1.78412e-08
-7.88272e-16
1.78412e-08
-3.13564e-16
1.78412e-08
2.25415e-15
1.78412e-08
-4.65913e-15
1.78412e-08
7.11352e-15
1.78412e-08
-8.75659e-15
1.78412e-08
9.77014e-15
1.78412e-08
-1.03166e-14
1.78412e-08
1.11233e-14
1.78412e-08
-1.2052e-14
1.78412e-08
1.29072e-14
1.78412e-08
-1.2864e-14
1.78412e-08
1.18202e-14
1.78412e-08
-9.42891e-15
1.78412e-08
5.84062e-15
1.78412e-08
-2.45894e-16
1.78412e-08
-7.67346e-15
1.78412e-08
1.81735e-14
1.78412e-08
-2.99077e-14
1.78412e-08
4.11781e-14
1.78413e-08
-4.96656e-14
1.78412e-08
5.42789e-14
1.78413e-08
-5.51616e-14
1.78412e-08
5.52214e-14
1.78413e-08
-5.90502e-14
1.78412e-08
7.16297e-14
1.78413e-08
-9.54298e-14
1.78412e-08
1.28697e-13
1.78413e-08
-1.89543e-13
1.78411e-08
2.70215e-13
1.78418e-08
-7.33151e-13
1.78408e-08
1.02307e-12
-2.64732e-12
1.31373e-08
-1.24828e-09
1.35107e-08
-7.89395e-10
1.37873e-08
-5.27222e-10
1.40066e-08
-4.53192e-10
1.41887e-08
-3.55915e-10
1.43495e-08
-3.26071e-10
1.44962e-08
-2.90976e-10
1.46316e-08
-2.72063e-10
1.47588e-08
-2.53659e-10
1.48787e-08
-2.40144e-10
1.49928e-08
-2.27985e-10
1.51016e-08
-2.17843e-10
1.52061e-08
-2.08825e-10
1.53065e-08
-2.0088e-10
1.54034e-08
-1.93725e-10
1.5497e-08
-1.8723e-10
1.55876e-08
-1.8127e-10
1.56754e-08
-1.75743e-10
1.57607e-08
-1.70579e-10
1.58434e-08
-1.6571e-10
1.59239e-08
-1.6109e-10
1.60022e-08
-1.56677e-10
1.60783e-08
-1.52441e-10
1.61524e-08
-1.48356e-10
1.62244e-08
-1.44403e-10
1.62946e-08
-1.40566e-10
1.63629e-08
-1.36834e-10
1.64293e-08
-1.33197e-10
1.6494e-08
-1.29648e-10
1.65569e-08
-1.26182e-10
1.66181e-08
-1.22797e-10
1.66777e-08
-1.19489e-10
1.67356e-08
-1.16255e-10
1.6792e-08
-1.13091e-10
1.68468e-08
-1.09995e-10
1.69001e-08
-1.0697e-10
1.69519e-08
-1.04018e-10
1.70023e-08
-1.01142e-10
1.70513e-08
-9.83414e-11
1.70989e-08
-9.56097e-11
1.71451e-08
-9.29369e-11
1.71901e-08
-9.03125e-11
1.72338e-08
-8.77315e-11
1.72762e-08
-8.51993e-11
1.73174e-08
-8.27327e-11
1.73574e-08
-8.03569e-11
1.73962e-08
-7.80977e-11
1.7434e-08
-7.59726e-11
1.74708e-08
-7.39823e-11
1.75067e-08
-7.21053e-11
1.75416e-08
-7.02984e-11
1.75757e-08
-6.84979e-11
1.76088e-08
-6.66295e-11
1.7641e-08
-6.46092e-11
1.7672e-08
-6.23588e-11
1.77019e-08
-5.97992e-11
1.77303e-08
-5.68714e-11
1.7757e-08
-5.35186e-11
1.7782e-08
-4.97195e-11
1.78048e-08
-4.54542e-11
1.78254e-08
-4.07584e-11
1.78435e-08
-3.56631e-11
1.78589e-08
-3.02774e-11
1.78716e-08
-2.46862e-11
1.78815e-08
-1.90722e-11
1.78886e-08
-1.35497e-11
1.78932e-08
-8.3471e-12
1.78953e-08
-3.55324e-12
1.78953e-08
6.05294e-13
1.78936e-08
4.13178e-12
1.78904e-08
6.8393e-12
1.78861e-08
8.86853e-12
1.78812e-08
1.00715e-11
1.7876e-08
1.07324e-11
1.78707e-08
1.06995e-11
1.78655e-08
1.03779e-11
1.78607e-08
9.54847e-12
1.78564e-08
8.71231e-12
1.78525e-08
7.52471e-12
1.78492e-08
6.57495e-12
1.78465e-08
5.35294e-12
1.78442e-08
4.55045e-12
1.78424e-08
3.46971e-12
1.78409e-08
2.93425e-12
1.78398e-08
2.04655e-12
1.78389e-08
1.79615e-12
1.78383e-08
1.07694e-12
1.78378e-08
1.0756e-12
1.78375e-08
4.68536e-13
1.78372e-08
6.63318e-13
1.78371e-08
1.10249e-13
1.78369e-08
4.52212e-13
1.78369e-08
-9.24402e-14
1.78367e-08
3.59409e-13
1.78368e-08
-2.06174e-13
1.78367e-08
3.29524e-13
1.78368e-08
-2.72056e-13
1.78366e-08
3.29296e-13
1.78368e-08
-3.12569e-13
1.78366e-08
3.40315e-13
1.78368e-08
-3.38769e-13
1.78366e-08
3.52948e-13
1.78368e-08
-3.553e-13
1.78366e-08
3.62287e-13
1.78368e-08
-3.63778e-13
1.78366e-08
3.65778e-13
1.78368e-08
-3.64343e-13
1.78366e-08
3.61909e-13
1.78368e-08
-3.56541e-13
1.78366e-08
3.49483e-13
1.78368e-08
-3.39412e-13
1.78366e-08
3.27177e-13
1.78368e-08
-3.11642e-13
1.78366e-08
2.93501e-13
1.78367e-08
-2.71816e-13
1.78366e-08
2.47368e-13
1.78367e-08
-2.19628e-13
1.78366e-08
1.89681e-13
1.78367e-08
-1.57802e-13
1.78366e-08
1.25767e-13
1.78367e-08
-9.48604e-14
1.78367e-08
6.74943e-14
1.78367e-08
-4.58827e-14
1.78367e-08
3.26391e-14
1.78367e-08
-2.98163e-14
1.78367e-08
3.90272e-14
1.78367e-08
-6.06683e-14
1.78366e-08
9.39108e-14
1.78367e-08
-1.36084e-13
1.78366e-08
1.83558e-13
1.78368e-08
-2.30715e-13
1.78366e-08
2.72352e-13
1.78368e-08
-3.02181e-13
1.78366e-08
3.16354e-13
1.78368e-08
-3.11001e-13
1.78366e-08
2.8617e-13
1.78367e-08
-2.42308e-13
1.78366e-08
1.83562e-13
1.78367e-08
-1.13801e-13
1.78367e-08
3.88797e-14
1.78367e-08
3.65074e-14
1.78367e-08
-1.07596e-13
1.78366e-08
1.70995e-13
1.78367e-08
-2.2416e-13
1.78366e-08
2.65224e-13
1.78367e-08
-2.93282e-13
1.78366e-08
3.07524e-13
1.78367e-08
-3.08075e-13
1.78366e-08
2.95208e-13
1.78367e-08
-2.70599e-13
1.78366e-08
2.36528e-13
1.78367e-08
-1.96554e-13
1.78367e-08
1.54809e-13
1.78367e-08
-1.15657e-13
1.78367e-08
8.3001e-14
1.78367e-08
-5.91426e-14
1.78367e-08
4.48601e-14
1.78367e-08
-3.83223e-14
1.78367e-08
3.67483e-14
1.78367e-08
-3.61873e-14
1.78367e-08
3.37549e-14
1.78367e-08
-2.76836e-14
1.78367e-08
1.87887e-14
1.78367e-08
-8.71226e-15
1.78367e-08
1.98669e-16
1.78367e-08
5.68471e-15
1.78367e-08
-8.64005e-15
1.78367e-08
1.04909e-14
1.78367e-08
-1.26578e-14
1.78367e-08
1.65311e-14
1.78367e-08
-2.12661e-14
1.78367e-08
2.60172e-14
1.78367e-08
-2.91648e-14
1.78367e-08
3.11594e-14
1.78367e-08
-3.23603e-14
1.78367e-08
3.41512e-14
1.78367e-08
-3.61613e-14
1.78367e-08
3.79421e-14
1.78367e-08
-3.78619e-14
1.78367e-08
3.57554e-14
1.78367e-08
-3.09232e-14
1.78367e-08
2.35738e-14
1.78367e-08
-1.20832e-14
1.78367e-08
-4.07379e-15
1.78367e-08
2.51977e-14
1.78367e-08
-4.83873e-14
1.78367e-08
7.012e-14
1.78367e-08
-8.58758e-14
1.78367e-08
9.37516e-14
1.78367e-08
-9.43795e-14
1.78367e-08
9.37582e-14
1.78367e-08
-1.00703e-13
1.78366e-08
1.23997e-13
1.78367e-08
-1.66658e-13
1.78366e-08
2.23068e-13
1.78368e-08
-3.24523e-13
1.78366e-08
4.41501e-13
1.78371e-08
-1.1995e-12
1.78372e-08
8.41505e-13
-6.93959e-12
1.31379e-08
-1.88621e-09
1.35118e-08
-1.16324e-09
1.37883e-08
-8.03789e-10
1.40077e-08
-6.7251e-10
1.41897e-08
-5.37994e-10
1.43506e-08
-4.86942e-10
1.44973e-08
-4.37698e-10
1.46327e-08
-4.07454e-10
1.47599e-08
-3.80882e-10
1.48798e-08
-3.60032e-10
1.4994e-08
-3.42113e-10
1.51028e-08
-3.2671e-10
1.52073e-08
-3.13271e-10
1.53077e-08
-3.01271e-10
1.54045e-08
-2.90541e-10
1.5498e-08
-2.80739e-10
1.55885e-08
-2.71764e-10
1.56762e-08
-2.63416e-10
1.57612e-08
-2.55617e-10
1.58437e-08
-2.48252e-10
1.59239e-08
-2.41262e-10
1.60018e-08
-2.3458e-10
1.60775e-08
-2.28165e-10
1.61512e-08
-2.21978e-10
1.62227e-08
-2.15992e-10
1.62924e-08
-2.10183e-10
1.63601e-08
-2.04535e-10
1.64259e-08
-1.99034e-10
1.64899e-08
-1.93669e-10
1.65522e-08
-1.88434e-10
1.66127e-08
-1.83324e-10
1.66715e-08
-1.78334e-10
1.67288e-08
-1.73459e-10
1.67844e-08
-1.68694e-10
1.68384e-08
-1.64035e-10
1.68909e-08
-1.59486e-10
1.69419e-08
-1.55048e-10
1.69915e-08
-1.50728e-10
1.70397e-08
-1.46523e-10
1.70865e-08
-1.42425e-10
1.7132e-08
-1.3842e-10
1.71762e-08
-1.34491e-10
1.72191e-08
-1.3063e-10
1.72607e-08
-1.26843e-10
1.73011e-08
-1.23152e-10
1.73404e-08
-1.19594e-10
1.73785e-08
-1.16206e-10
1.74155e-08
-1.13017e-10
1.74516e-08
-1.1003e-10
1.74867e-08
-1.07218e-10
1.75209e-08
-1.04521e-10
1.75543e-08
-1.01847e-10
1.75867e-08
-9.90892e-11
1.76182e-08
-9.61247e-11
1.76487e-08
-9.28368e-11
1.7678e-08
-8.9108e-11
1.7706e-08
-8.48473e-11
1.77325e-08
-7.9969e-11
1.77572e-08
-7.4435e-11
1.77799e-08
-6.8214e-11
1.78005e-08
-6.13487e-11
1.78187e-08
-5.38841e-11
1.78344e-08
-4.59688e-11
1.78475e-08
-3.77299e-11
1.78578e-08
-2.94231e-11
1.78655e-08
-2.12255e-11
1.78706e-08
-1.34604e-11
1.78733e-08
-6.27714e-12
1.78739e-08
4.01191e-15
1.78727e-08
5.35808e-12
1.787e-08
9.52666e-12
1.78662e-08
1.26775e-11
1.78617e-08
1.46187e-11
1.78567e-08
1.57219e-11
1.78516e-08
1.5804e-11
1.78466e-08
1.54079e-11
1.78418e-08
1.42682e-11
1.78375e-08
1.306e-11
1.78337e-08
1.13507e-11
1.78303e-08
9.93236e-12
1.78275e-08
8.14571e-12
1.78251e-08
6.91749e-12
1.78233e-08
5.32852e-12
1.78217e-08
4.48118e-12
1.78206e-08
3.17832e-12
1.78197e-08
2.74794e-12
1.7819e-08
1.70164e-12
1.78185e-08
1.6398e-12
1.78182e-08
7.69041e-13
1.78178e-08
9.99023e-13
1.78177e-08
2.17186e-13
1.78175e-08
6.66551e-13
1.78175e-08
-9.58014e-14
1.78174e-08
5.17315e-13
1.78174e-08
-2.71397e-13
1.78173e-08
4.66773e-13
1.78174e-08
-3.72912e-13
1.78172e-08
4.63687e-13
1.78174e-08
-4.35391e-13
1.78172e-08
4.79475e-13
1.78174e-08
-4.76243e-13
1.78172e-08
4.99075e-13
1.78174e-08
-5.02904e-13
1.78172e-08
5.14755e-13
1.78174e-08
-5.17971e-13
1.78172e-08
5.22434e-13
1.78174e-08
-5.21678e-13
1.78172e-08
5.19646e-13
1.78174e-08
-5.13237e-13
1.78172e-08
5.04395e-13
1.78174e-08
-4.91065e-13
1.78172e-08
4.74515e-13
1.78174e-08
-4.53028e-13
1.78172e-08
4.27631e-13
1.78174e-08
-3.96928e-13
1.78172e-08
3.62076e-13
1.78173e-08
-3.22333e-13
1.78172e-08
2.79348e-13
1.78173e-08
-2.33585e-13
1.78173e-08
1.8771e-13
1.78173e-08
-1.43723e-13
1.78173e-08
1.05214e-13
1.78173e-08
-7.54751e-14
1.78173e-08
5.83443e-14
1.78173e-08
-5.6777e-14
1.78173e-08
7.29936e-14
1.78173e-08
-1.07392e-13
1.78173e-08
1.58555e-13
1.78173e-08
-2.22298e-13
1.78172e-08
2.93105e-13
1.78174e-08
-3.62597e-13
1.78172e-08
4.23128e-13
1.78174e-08
-4.65554e-13
1.78172e-08
4.84437e-13
1.78174e-08
-4.74391e-13
1.78172e-08
4.35782e-13
1.78173e-08
-3.69546e-13
1.78172e-08
2.81924e-13
1.78173e-08
-1.7872e-13
1.78173e-08
6.84659e-14
1.78173e-08
4.20097e-14
1.78173e-08
-1.45889e-13
1.78173e-08
2.38278e-13
1.78173e-08
-3.15557e-13
1.78172e-08
3.75034e-13
1.78174e-08
-4.15408e-13
1.78172e-08
4.35508e-13
1.78174e-08
-4.35572e-13
1.78172e-08
4.16093e-13
1.78173e-08
-3.79643e-13
1.78172e-08
3.29695e-13
1.78173e-08
-2.71559e-13
1.78173e-08
2.11337e-13
1.78173e-08
-1.55353e-13
1.78173e-08
1.09184e-13
1.78173e-08
-7.59525e-14
1.78173e-08
5.65403e-14
1.78173e-08
-4.80522e-14
1.78173e-08
4.63132e-14
1.78173e-08
-4.55856e-14
1.78173e-08
4.18215e-14
1.78173e-08
-3.26941e-14
1.78173e-08
1.96051e-14
1.78173e-08
-5.04366e-15
1.78173e-08
-7.02987e-15
1.78173e-08
1.52318e-14
1.78173e-08
-1.92966e-14
1.78173e-08
2.19804e-14
1.78173e-08
-2.52967e-14
1.78173e-08
3.11367e-14
1.78173e-08
-3.81353e-14
1.78173e-08
4.50381e-14
1.78173e-08
-4.95732e-14
1.78173e-08
5.25166e-14
1.78173e-08
-5.44311e-14
1.78173e-08
5.72791e-14
1.78173e-08
-6.03994e-14
1.78173e-08
6.30764e-14
1.78173e-08
-6.29257e-14
1.78173e-08
5.97597e-14
1.78173e-08
-5.25417e-14
1.78173e-08
4.15056e-14
1.78173e-08
-2.42748e-14
1.78173e-08
2.62362e-16
1.78173e-08
3.06824e-14
1.78173e-08
-6.39917e-14
1.78173e-08
9.43298e-14
1.78173e-08
-1.15184e-13
1.78173e-08
1.24128e-13
1.78173e-08
-1.22494e-13
1.78173e-08
1.1925e-13
1.78173e-08
-1.26671e-13
1.78173e-08
1.55868e-13
1.78173e-08
-2.0838e-13
1.78173e-08
2.72185e-13
1.78173e-08
-3.86281e-13
1.78173e-08
4.85761e-13
1.78175e-08
-1.42465e-12
1.78181e-08
2.68592e-13
-1.20666e-11
1.3139e-08
-2.5252e-09
1.35135e-08
-1.53777e-09
1.379e-08
-1.08029e-09
1.40093e-08
-8.9179e-10
1.41914e-08
-7.20074e-10
1.43523e-08
-6.4782e-10
1.4499e-08
-5.84441e-10
1.46344e-08
-5.42868e-10
1.47617e-08
-5.08131e-10
1.48816e-08
-4.79945e-10
1.49957e-08
-4.56259e-10
1.51046e-08
-4.35582e-10
1.5209e-08
-4.17699e-10
1.53094e-08
-4.01612e-10
1.54061e-08
-3.87266e-10
1.54995e-08
-3.74107e-10
1.55898e-08
-3.62058e-10
1.56772e-08
-3.50823e-10
1.57619e-08
-3.40319e-10
1.5844e-08
-3.30384e-10
1.59237e-08
-3.20949e-10
1.6001e-08
-3.11924e-10
1.60761e-08
-3.03258e-10
1.6149e-08
-2.94898e-10
1.62199e-08
-2.86813e-10
1.62886e-08
-2.7897e-10
1.63555e-08
-2.71349e-10
1.64204e-08
-2.63931e-10
1.64834e-08
-2.56703e-10
1.65446e-08
-2.49658e-10
1.66041e-08
-2.42786e-10
1.66618e-08
-2.36083e-10
1.67179e-08
-2.29541e-10
1.67724e-08
-2.23154e-10
1.68253e-08
-2.16916e-10
1.68766e-08
-2.1083e-10
1.69264e-08
-2.04899e-10
1.69748e-08
-1.99128e-10
1.70218e-08
-1.93517e-10
1.70675e-08
-1.88055e-10
1.71118e-08
-1.82722e-10
1.71548e-08
-1.77497e-10
1.71965e-08
-1.72367e-10
1.7237e-08
-1.67338e-10
1.72763e-08
-1.62436e-10
1.73144e-08
-1.57708e-10
1.73514e-08
-1.53203e-10
1.73873e-08
-1.48959e-10
1.74223e-08
-1.44985e-10
1.74563e-08
-1.41247e-10
1.74895e-08
-1.37674e-10
1.75218e-08
-1.34147e-10
1.75532e-08
-1.3053e-10
1.75838e-08
-1.26663e-10
1.76133e-08
-1.22393e-10
1.76418e-08
-1.17563e-10
1.7669e-08
-1.12055e-10
1.76948e-08
-1.05749e-10
1.77189e-08
-9.85929e-11
1.77412e-08
-9.05366e-11
1.77615e-08
-8.16347e-11
1.77796e-08
-7.19329e-11
1.77952e-08
-6.1625e-11
1.78084e-08
-5.08636e-11
1.78189e-08
-3.99851e-11
1.78269e-08
-2.92095e-11
1.78324e-08
-1.89666e-11
1.78356e-08
-9.44504e-12
1.78367e-08
-1.07783e-12
1.78359e-08
6.10392e-12
1.78337e-08
1.17431e-11
1.78303e-08
1.60577e-11
1.78262e-08
1.87777e-11
1.78215e-08
2.03885e-11
1.78167e-08
2.06369e-11
1.78118e-08
2.02346e-11
1.78073e-08
1.88295e-11
1.7803e-08
1.73073e-11
1.77993e-08
1.51057e-11
1.77959e-08
1.32609e-11
1.77932e-08
1.09221e-11
1.77908e-08
9.29551e-12
1.77889e-08
7.19777e-12
1.77873e-08
6.05501e-12
1.77862e-08
4.32867e-12
1.77852e-08
3.72808e-12
1.77846e-08
2.34337e-12
1.7784e-08
2.2272e-12
1.77837e-08
1.08178e-12
1.77833e-08
1.35104e-12
1.77832e-08
3.31799e-13
1.7783e-08
8.90921e-13
1.7783e-08
-9.44565e-14
1.77828e-08
6.80269e-13
1.77829e-08
-3.33176e-13
1.77827e-08
6.05282e-13
1.77828e-08
-4.70263e-13
1.77827e-08
5.96406e-13
1.77828e-08
-5.53806e-13
1.77827e-08
6.14582e-13
1.77828e-08
-6.07967e-13
1.77827e-08
6.39129e-13
1.77828e-08
-6.43267e-13
1.77827e-08
6.59408e-13
1.77828e-08
-6.63475e-13
1.77827e-08
6.69792e-13
1.77828e-08
-6.6904e-13
1.77827e-08
6.66876e-13
1.77828e-08
-6.58924e-13
1.77827e-08
6.47894e-13
1.77828e-08
-6.30979e-13
1.77827e-08
6.09879e-13
1.77828e-08
-5.8231e-13
1.77827e-08
5.49631e-13
1.77828e-08
-5.10025e-13
1.77827e-08
4.65015e-13
1.77828e-08
-4.13689e-13
1.77827e-08
3.58249e-13
1.77828e-08
-2.99375e-13
1.77827e-08
2.40595e-13
1.77828e-08
-1.84617e-13
1.77827e-08
1.36143e-13
1.77828e-08
-9.94743e-14
1.77827e-08
7.95549e-14
1.77828e-08
-8.0123e-14
1.77827e-08
1.03865e-13
1.77828e-08
-1.51061e-13
1.77827e-08
2.19613e-13
1.77828e-08
-3.038e-13
1.77827e-08
3.96258e-13
1.77828e-08
-4.85993e-13
1.77827e-08
5.63112e-13
1.77828e-08
-6.159e-13
1.77827e-08
6.37582e-13
1.77828e-08
-6.21552e-13
1.77827e-08
5.68635e-13
1.77828e-08
-4.80394e-13
1.77827e-08
3.65102e-13
1.77828e-08
-2.30424e-13
1.77827e-08
8.73476e-14
1.77827e-08
5.53512e-14
1.77828e-08
-1.89029e-13
1.77827e-08
3.07462e-13
1.77828e-08
-4.06091e-13
1.77827e-08
4.8151e-13
1.77828e-08
-5.32085e-13
1.77827e-08
5.56367e-13
1.77828e-08
-5.54751e-13
1.77827e-08
5.28023e-13
1.77828e-08
-4.79664e-13
1.77827e-08
4.14337e-13
1.77828e-08
-3.39018e-13
1.77827e-08
2.6166e-13
1.77828e-08
-1.90347e-13
1.77827e-08
1.32121e-13
1.77828e-08
-9.0728e-14
1.77827e-08
6.7014e-14
1.77828e-08
-5.69903e-14
1.77827e-08
5.515e-14
1.77828e-08
-5.41251e-14
1.77827e-08
4.88771e-14
1.77828e-08
-3.66752e-14
1.77828e-08
1.95527e-14
1.77827e-08
-8.10284e-16
1.77828e-08
-1.45012e-14
1.77827e-08
2.47887e-14
1.77828e-08
-2.9882e-14
1.77827e-08
3.34288e-14
1.77828e-08
-3.79588e-14
1.77827e-08
4.57671e-14
1.77828e-08
-5.49578e-14
1.77827e-08
6.39017e-14
1.77828e-08
-6.97656e-14
1.77827e-08
7.36767e-14
1.77828e-08
-7.63896e-14
1.77827e-08
8.03756e-14
1.77828e-08
-8.46589e-14
1.77827e-08
8.82593e-14
1.77828e-08
-8.81001e-14
1.77827e-08
8.3993e-14
1.77828e-08
-7.45836e-14
1.77827e-08
6.01254e-14
1.77828e-08
-3.75738e-14
1.77827e-08
6.40673e-15
1.77827e-08
3.32258e-14
1.77828e-08
-7.50466e-14
1.77827e-08
1.11984e-13
1.77828e-08
-1.35733e-13
1.77827e-08
1.43558e-13
1.77828e-08
-1.37557e-13
1.77827e-08
1.29378e-13
1.77828e-08
-1.33931e-13
1.77827e-08
1.63375e-13
1.77828e-08
-2.16319e-13
1.77828e-08
2.72944e-13
1.77827e-08
-3.77648e-13
1.77828e-08
4.28836e-13
1.77829e-08
-1.51804e-12
1.77835e-08
-3.39318e-13
-1.752e-11
1.31405e-08
-3.16571e-09
1.3516e-08
-1.91323e-09
1.37923e-08
-1.35667e-09
1.40115e-08
-1.11099e-09
1.41936e-08
-9.02136e-10
1.43545e-08
-8.08702e-10
1.45013e-08
-7.31208e-10
1.46367e-08
-6.78311e-10
1.4764e-08
-6.35414e-10
1.48839e-08
-5.99888e-10
1.49981e-08
-5.70424e-10
1.5107e-08
-5.44447e-10
1.52113e-08
-5.22084e-10
1.53116e-08
-5.0186e-10
1.54082e-08
-4.83833e-10
1.55013e-08
-4.67242e-10
1.55913e-08
-4.52035e-10
1.56783e-08
-4.3782e-10
1.57625e-08
-4.24514e-10
1.5844e-08
-4.11909e-10
1.5923e-08
-3.9993e-10
1.59995e-08
-3.88462e-10
1.60737e-08
-3.77448e-10
1.61456e-08
-3.66825e-10
1.62154e-08
-3.56554e-10
1.6283e-08
-3.46598e-10
1.63486e-08
-3.36931e-10
1.64122e-08
-3.27531e-10
1.64739e-08
-3.18383e-10
1.65337e-08
-3.09475e-10
1.65917e-08
-3.00798e-10
1.66479e-08
-2.92345e-10
1.67025e-08
-2.84106e-10
1.67554e-08
-2.76072e-10
1.68067e-08
-2.68237e-10
1.68565e-08
-2.60601e-10
1.69048e-08
-2.53168e-10
1.69516e-08
-2.45944e-10
1.6997e-08
-2.38927e-10
1.70411e-08
-2.32105e-10
1.70838e-08
-2.25453e-10
1.71252e-08
-2.18944e-10
1.71654e-08
-2.1256e-10
1.72044e-08
-2.06306e-10
1.72422e-08
-2.00214e-10
1.72788e-08
-1.94335e-10
1.73143e-08
-1.88732e-10
1.73488e-08
-1.83451e-10
1.73824e-08
-1.78506e-10
1.7415e-08
-1.7386e-10
1.74467e-08
-1.6943e-10
1.74776e-08
-1.65075e-10
1.75078e-08
-1.60632e-10
1.7537e-08
-1.55903e-10
1.75653e-08
-1.50707e-10
1.75926e-08
-1.44845e-10
1.76187e-08
-1.38173e-10
1.76435e-08
-1.30535e-10
1.76668e-08
-1.21872e-10
1.76883e-08
-1.12105e-10
1.7708e-08
-1.01306e-10
1.77256e-08
-8.95097e-11
1.77409e-08
-7.69608e-11
1.77539e-08
-6.3822e-11
1.77644e-08
-5.05168e-11
1.77725e-08
-3.7289e-11
1.77782e-08
-2.46855e-11
1.77817e-08
-1.29125e-11
1.77831e-08
-2.53204e-12
1.77828e-08
6.44055e-12
1.7781e-08
1.35261e-11
1.77781e-08
1.9015e-11
1.77743e-08
2.25287e-11
1.777e-08
2.46907e-11
1.77655e-08
2.5142e-11
1.77609e-08
2.47918e-11
1.77566e-08
2.3162e-11
1.77525e-08
2.13827e-11
1.77489e-08
1.87213e-11
1.77457e-08
1.6497e-11
1.7743e-08
1.36259e-11
1.77406e-08
1.16353e-11
1.77388e-08
9.03618e-12
1.77372e-08
7.62139e-12
1.77361e-08
5.47013e-12
1.77351e-08
4.71478e-12
1.77345e-08
2.98538e-12
1.77339e-08
2.82509e-12
1.77335e-08
1.39727e-12
1.77332e-08
1.71255e-12
1.77331e-08
4.4906e-13
1.77328e-08
1.12199e-12
1.77328e-08
-9.09485e-14
1.77327e-08
8.46821e-13
1.77327e-08
-3.92776e-13
1.77326e-08
7.44533e-13
1.77327e-08
-5.64757e-13
1.77326e-08
7.27348e-13
1.77327e-08
-6.68164e-13
1.77325e-08
7.45675e-13
1.77327e-08
-7.34131e-13
1.77325e-08
7.7316e-13
1.77327e-08
-7.76461e-13
1.77325e-08
7.96237e-13
1.77327e-08
-8.00251e-13
1.77325e-08
8.07753e-13
1.77327e-08
-8.06286e-13
1.77325e-08
8.03402e-13
1.77327e-08
-7.93363e-13
1.77325e-08
7.79701e-13
1.77327e-08
-7.5885e-13
1.77325e-08
7.32951e-13
1.77326e-08
-6.99178e-13
1.77325e-08
6.59218e-13
1.77326e-08
-6.10869e-13
1.77325e-08
5.5601e-13
1.77326e-08
-4.93595e-13
1.77326e-08
4.26358e-13
1.77326e-08
-3.55213e-13
1.77326e-08
2.84499e-13
1.77326e-08
-2.17609e-13
1.77326e-08
1.60262e-13
1.77326e-08
-1.1769e-13
1.77326e-08
9.58109e-14
1.77326e-08
-9.90323e-14
1.77326e-08
1.30378e-13
1.77326e-08
-1.89925e-13
1.77326e-08
2.74846e-13
1.77326e-08
-3.77919e-13
1.77325e-08
4.90022e-13
1.77327e-08
-5.97744e-13
1.77325e-08
6.89161e-13
1.77327e-08
-7.50294e-13
1.77325e-08
7.7325e-13
1.77327e-08
-7.50465e-13
1.77325e-08
6.83297e-13
1.77326e-08
-5.74024e-13
1.77326e-08
4.32816e-13
1.77326e-08
-2.69096e-13
1.77326e-08
9.60585e-14
1.77326e-08
7.57638e-14
1.77326e-08
-2.36121e-13
1.77326e-08
3.77617e-13
1.77326e-08
-4.94875e-13
1.77325e-08
5.83884e-13
1.77326e-08
-6.42727e-13
1.77325e-08
6.69758e-13
1.77326e-08
-6.65554e-13
1.77325e-08
6.31251e-13
1.77326e-08
-5.71207e-13
1.77326e-08
4.91251e-13
1.77326e-08
-3.99895e-13
1.77326e-08
3.06798e-13
1.77326e-08
-2.21605e-13
1.77326e-08
1.52631e-13
1.77326e-08
-1.04095e-13
1.77326e-08
7.67142e-14
1.77326e-08
-6.5429e-14
1.77326e-08
6.34908e-14
1.77326e-08
-6.20599e-14
1.77326e-08
5.52514e-14
1.77326e-08
-4.004e-14
1.77326e-08
1.90926e-14
1.77326e-08
3.53401e-15
1.77326e-08
-2.1815e-14
1.77326e-08
3.402e-14
1.77326e-08
-4.01045e-14
1.77326e-08
4.45486e-14
1.77326e-08
-5.03329e-14
1.77326e-08
6.00868e-14
1.77326e-08
-7.14001e-14
1.77326e-08
8.23053e-14
1.77326e-08
-8.94821e-14
1.77326e-08
9.44079e-14
1.77326e-08
-9.80138e-14
1.77326e-08
1.03221e-13
1.77326e-08
-1.08739e-13
1.77326e-08
1.13336e-13
1.77326e-08
-1.13302e-13
1.77326e-08
1.08458e-13
1.77326e-08
-9.71614e-14
1.77326e-08
7.96947e-14
1.77326e-08
-5.2441e-14
1.77326e-08
1.50435e-14
1.77326e-08
3.19499e-14
1.77326e-08
-8.05745e-14
1.77326e-08
1.22139e-13
1.77326e-08
-1.46744e-13
1.77326e-08
1.51494e-13
1.77326e-08
-1.39234e-13
1.77326e-08
1.23953e-13
1.77326e-08
-1.22494e-13
1.77326e-08
1.47239e-13
1.77326e-08
-1.93316e-13
1.77326e-08
2.33339e-13
1.77326e-08
-3.18229e-13
1.77327e-08
3.16302e-13
1.77327e-08
-1.57299e-12
1.77332e-08
-8.50813e-13
-2.29619e-11
1.31424e-08
-3.80814e-09
1.35191e-08
-2.28989e-09
1.37953e-08
-1.63288e-09
1.40144e-08
-1.33008e-09
1.41964e-08
-1.08416e-09
1.43573e-08
-9.69582e-10
1.45041e-08
-8.78002e-10
1.46396e-08
-8.13792e-10
1.47669e-08
-7.62738e-10
1.48869e-08
-7.19863e-10
1.5001e-08
-6.84598e-10
1.51099e-08
-6.53281e-10
1.52142e-08
-6.2638e-10
1.53142e-08
-6.01943e-10
1.54106e-08
-5.80144e-10
1.55033e-08
-5.60015e-10
1.55928e-08
-5.41534e-10
1.56792e-08
-5.24217e-10
1.57627e-08
-5.07982e-10
1.58434e-08
-4.9258e-10
1.59214e-08
-4.77929e-10
1.59968e-08
-4.63896e-10
1.60698e-08
-4.50418e-10
1.61404e-08
-4.3742e-10
1.62087e-08
-4.24862e-10
1.62748e-08
-4.12698e-10
1.63387e-08
-4.009e-10
1.64007e-08
-3.89443e-10
1.64606e-08
-3.78308e-10
1.65186e-08
-3.67481e-10
1.65747e-08
-3.56952e-10
1.66291e-08
-3.46709e-10
1.66817e-08
-3.36742e-10
1.67327e-08
-3.27037e-10
1.67821e-08
-3.17588e-10
1.68298e-08
-3.08391e-10
1.68761e-08
-2.99452e-10
1.6921e-08
-2.90775e-10
1.69644e-08
-2.82357e-10
1.70065e-08
-2.74184e-10
1.70472e-08
-2.66226e-10
1.70867e-08
-2.5845e-10
1.7125e-08
-2.50835e-10
1.71621e-08
-2.43381e-10
1.7198e-08
-2.36124e-10
1.72328e-08
-2.29122e-10
1.72665e-08
-2.22448e-10
1.72992e-08
-2.16156e-10
1.7331e-08
-2.10266e-10
1.73619e-08
-2.04737e-10
1.73919e-08
-1.99478e-10
1.74211e-08
-1.94323e-10
1.74496e-08
-1.89091e-10
1.74772e-08
-1.83545e-10
1.7504e-08
-1.77479e-10
1.75298e-08
-1.70651e-10
1.75546e-08
-1.62901e-10
1.7578e-08
-1.5403e-10
1.76001e-08
-1.43976e-10
1.76207e-08
-1.32627e-10
1.76394e-08
-1.20075e-10
1.76563e-08
-1.06337e-10
1.7671e-08
-9.17111e-11
1.76836e-08
-7.63569e-11
1.76938e-08
-6.07903e-11
1.77018e-08
-4.52617e-11
1.77076e-08
-3.04423e-11
1.77112e-08
-1.65364e-11
1.77129e-08
-4.2473e-12
1.77129e-08
6.44609e-12
1.77115e-08
1.49228e-11
1.77089e-08
2.15671e-11
1.77056e-08
2.58649e-11
1.77017e-08
2.86006e-11
1.76976e-08
2.92762e-11
1.76933e-08
2.90247e-11
1.76893e-08
2.72052e-11
1.76854e-08
2.52231e-11
1.7682e-08
2.21363e-11
1.76789e-08
1.95824e-11
1.76764e-08
1.62045e-11
1.76741e-08
1.389e-11
1.76723e-08
1.0804e-11
1.76708e-08
9.14672e-12
1.76697e-08
6.57556e-12
1.76687e-08
5.68606e-12
1.76681e-08
3.61067e-12
1.76675e-08
3.42025e-12
1.76672e-08
1.70566e-12
1.76668e-08
2.07624e-12
1.76667e-08
5.6362e-13
1.76665e-08
1.35601e-12
1.76665e-08
-8.80292e-14
1.76663e-08
1.01524e-12
1.76664e-08
-4.51573e-13
1.76662e-08
8.83829e-13
1.76663e-08
-6.57087e-13
1.76662e-08
8.56302e-13
1.76663e-08
-7.78831e-13
1.76662e-08
8.72741e-13
1.76663e-08
-8.54931e-13
1.76662e-08
9.01201e-13
1.76663e-08
-9.02574e-13
1.76662e-08
9.25245e-13
1.76663e-08
-9.28295e-13
1.76662e-08
9.36252e-13
1.76663e-08
-9.33319e-13
1.76662e-08
9.29081e-13
1.76663e-08
-9.16378e-13
1.76662e-08
8.99607e-13
1.76663e-08
-8.7445e-13
1.76662e-08
8.43493e-13
1.76663e-08
-8.03403e-13
1.76662e-08
7.56184e-13
1.76663e-08
-6.99295e-13
1.76662e-08
6.34947e-13
1.76663e-08
-5.62002e-13
1.76662e-08
4.83683e-13
1.76663e-08
-4.01152e-13
1.76662e-08
3.19488e-13
1.76663e-08
-2.42727e-13
1.76662e-08
1.77498e-13
1.76663e-08
-1.29871e-13
1.76662e-08
1.06602e-13
1.76663e-08
-1.1266e-13
1.76662e-08
1.51293e-13
1.76663e-08
-2.22329e-13
1.76662e-08
3.22193e-13
1.76663e-08
-4.42256e-13
1.76662e-08
5.71759e-13
1.76663e-08
-6.95126e-13
1.76662e-08
7.9862e-13
1.76663e-08
-8.66316e-13
1.76662e-08
8.89384e-13
1.76663e-08
-8.59537e-13
1.76662e-08
7.78682e-13
1.76663e-08
-6.49843e-13
1.76662e-08
4.84918e-13
1.76663e-08
-2.94947e-13
1.76663e-08
9.50741e-14
1.76662e-08
1.02604e-13
1.76663e-08
-2.86436e-13
1.76662e-08
4.48008e-13
1.76663e-08
-5.81233e-13
1.76662e-08
6.81595e-13
1.76663e-08
-7.46941e-13
1.76662e-08
7.75505e-13
1.76663e-08
-7.68051e-13
1.76662e-08
7.26103e-13
1.76663e-08
-6.54839e-13
1.76662e-08
5.61187e-13
1.76663e-08
-4.55047e-13
1.76662e-08
3.47627e-13
1.76663e-08
-2.49932e-13
1.76662e-08
1.71385e-13
1.76663e-08
-1.16562e-13
1.76662e-08
8.60053e-14
1.76663e-08
-7.36396e-14
1.76662e-08
7.15812e-14
1.76662e-08
-6.96702e-14
1.76662e-08
6.12915e-14
1.76662e-08
-4.31965e-14
1.76662e-08
1.86589e-14
1.76662e-08
7.57084e-15
1.76663e-08
-2.85975e-14
1.76662e-08
4.25956e-14
1.76663e-08
-4.96555e-14
1.76662e-08
5.5022e-14
1.76663e-08
-6.20772e-14
1.76662e-08
7.37348e-14
1.76663e-08
-8.71048e-14
1.76662e-08
9.99129e-14
1.76663e-08
-1.0841e-13
1.76662e-08
1.14407e-13
1.76663e-08
-1.18996e-13
1.76662e-08
1.25501e-13
1.76663e-08
-1.32334e-13
1.76662e-08
1.38028e-13
1.76663e-08
-1.38296e-13
1.76662e-08
1.32975e-13
1.76663e-08
-1.20167e-13
1.76662e-08
1.00206e-13
1.76663e-08
-6.89957e-14
1.76662e-08
2.64105e-14
1.76662e-08
2.65564e-14
1.76662e-08
-8.03315e-14
1.76662e-08
1.2475e-13
1.76662e-08
-1.48505e-13
1.76662e-08
1.48657e-13
1.76662e-08
-1.28738e-13
1.76663e-08
1.04769e-13