/*--------------------------------*- C++ -*----------------------------------*\
| =========                 |                                                 |
| \\      /  F ield         | OpenFOAM: The Open Source CFD Toolbox           |
|  \\    /   O peration     | Version:  2412                                  |
|   \\  /    A nd           | Website:  www.openfoam.com                      |
|    \\/     M anipulation  |                                                 |
\*---------------------------------------------------------------------------*/
FoamFile
{
    version     2.0;
    format      ascii;
    arch        "LSB;label=32;scalar=64";
    class       volVectorField;
    location    "300";
    object      U;
}
// * * * * * * * * * * * * * * * * * * * * * * * * * * * * * * * * * * * * * //

dimensions      [0 1 -1 0 0 0 0];

internalField   nonuniform List<vector> 
8000
(
(0.0500315 -4.09747e-05 0)
(0.0544545 -2.79042e-05 0)
(0.0540827 -1.65e-05 0)
(0.0559578 -1.56381e-05 0)
(0.0562412 -1.15204e-05 0)
(0.0571863 -1.10241e-05 0)
(0.0576503 -9.59364e-06 0)
(0.0582915 -9.11167e-06 0)
(0.0587706 -8.41941e-06 0)
(0.059288 -8.0148e-06 0)
(0.0597412 -7.58526e-06 0)
(0.0601942 -7.26214e-06 0)
(0.0606158 -6.95426e-06 0)
(0.0610276 -6.6948e-06 0)
(0.0614204 -6.45458e-06 0)
(0.0618019 -6.24055e-06 0)
(0.0621698 -6.04209e-06 0)
(0.062527 -5.85954e-06 0)
(0.0628732 -5.68836e-06 0)
(0.0632096 -5.5275e-06 0)
(0.0635365 -5.37472e-06 0)
(0.0638545 -5.22898e-06 0)
(0.0641639 -5.08904e-06 0)
(0.0644651 -4.95414e-06 0)
(0.0647582 -4.82356e-06 0)
(0.0650436 -4.6968e-06 0)
(0.0653215 -4.57343e-06 0)
(0.0655921 -4.45315e-06 0)
(0.0658555 -4.33572e-06 0)
(0.066112 -4.22101e-06 0)
(0.0663616 -4.10887e-06 0)
(0.0666045 -3.99921e-06 0)
(0.066841 -3.8919e-06 0)
(0.067071 -3.78685e-06 0)
(0.0672948 -3.68403e-06 0)
(0.0675125 -3.5835e-06 0)
(0.0677243 -3.48536e-06 0)
(0.0679302 -3.38971e-06 0)
(0.0681304 -3.29647e-06 0)
(0.0683251 -3.20542e-06 0)
(0.0685144 -3.1162e-06 0)
(0.0686984 -3.02849e-06 0)
(0.0688772 -2.9422e-06 0)
(0.0690509 -2.85761e-06 0)
(0.0692195 -2.77539e-06 0)
(0.0693834 -2.69639e-06 0)
(0.0695425 -2.62149e-06 0)
(0.0696973 -2.55111e-06 0)
(0.0698479 -2.48516e-06 0)
(0.0699948 -2.42262e-06 0)
(0.0701379 -2.36195e-06 0)
(0.0702776 -2.30069e-06 0)
(0.0704133 -2.23642e-06 0)
(0.0705455 -2.16604e-06 0)
(0.0706729 -2.08723e-06 0)
(0.0707959 -1.99705e-06 0)
(0.0709126 -1.89407e-06 0)
(0.0710237 -1.77601e-06 0)
(0.0711264 -1.64301e-06 0)
(0.0712221 -1.49391e-06 0)
(0.0713071 -1.33108e-06 0)
(0.0713837 -1.15485e-06 0)
(0.0714476 -9.70459e-07 0)
(0.0715027 -7.7961e-07 0)
(0.0715434 -5.90407e-07 0)
(0.0715764 -4.04854e-07 0)
(0.0715943 -2.32979e-07 0)
(0.0716072 -7.49866e-08 0)
(0.0716053 5.86853e-08 0)
(0.0716026 1.72006e-07 0)
(0.071586 2.55138e-07 0)
(0.0715738 3.17757e-07 0)
(0.0715483 3.50234e-07 0)
(0.0715331 3.68135e-07 0)
(0.0715039 3.60274e-07 0)
(0.0714907 3.47411e-07 0)
(0.0714613 3.14474e-07 0)
(0.0714536 2.86746e-07 0)
(0.0714256 2.43235e-07 0)
(0.071425 2.137e-07 0)
(0.0713985 1.69887e-07 0)
(0.0714053 1.46666e-07 0)
(0.0713794 1.07808e-07 0)
(0.0713932 9.43392e-08 0)
(0.0713665 6.17034e-08 0)
(0.0713869 5.81884e-08 0)
(0.071358 3.07114e-08 0)
(0.0713844 3.57176e-08 0)
(0.0713521 1.14651e-08 0)
(0.0713844 2.31116e-08 0)
(0.0713478 2.1512e-10 0)
(0.0713858 1.68095e-08 0)
(0.0713443 -6.11602e-09 0)
(0.0713879 1.41286e-08 0)
(0.0713411 -9.64563e-09 0)
(0.0713905 1.33125e-08 0)
(0.0713382 -1.16534e-08 0)
(0.0713932 1.33231e-08 0)
(0.0713353 -1.28275e-08 0)
(0.0713959 1.35947e-08 0)
(0.0713326 -1.35016e-08 0)
(0.0713986 1.38372e-08 0)
(0.0713299 -1.38167e-08 0)
(0.0714011 1.39083e-08 0)
(0.0713275 -1.38252e-08 0)
(0.0714034 1.37396e-08 0)
(0.0713253 -1.35393e-08 0)
(0.0714055 1.32971e-08 0)
(0.0713234 -1.29561e-08 0)
(0.0714073 1.25566e-08 0)
(0.0713218 -1.20586e-08 0)
(0.0714087 1.14913e-08 0)
(0.0713205 -1.08188e-08 0)
(0.0714099 1.00659e-08 0)
(0.0713195 -9.20202e-09 0)
(0.0714106 8.25391e-09 0)
(0.071319 -7.20232e-09 0)
(0.071411 6.08363e-09 0)
(0.0713188 -4.90345e-09 0)
(0.071411 3.71809e-09 0)
(0.0713189 -2.56689e-09 0)
(0.0714107 1.52856e-09 0)
(0.0713194 -6.73517e-10 0)
(0.07141 8.888e-11 0)
(0.0713202 1.54565e-10 0)
(0.0714093 1.92023e-12 0)
(0.0713209 -5.78314e-10 0)
(0.0714085 1.55679e-09 0)
(0.0713216 -2.85796e-09 0)
(0.071408 4.36749e-09 0)
(0.071322 -5.90485e-09 0)
(0.0714077 7.29627e-09 0)
(0.0713222 -8.32673e-09 0)
(0.0714075 8.85889e-09 0)
(0.0713223 -8.75013e-09 0)
(0.0714073 7.98983e-09 0)
(0.0713227 -6.57886e-09 0)
(0.0714068 4.64996e-09 0)
(0.0713235 -2.32831e-09 0)
(0.0714057 -1.85318e-10 0)
(0.0713248 2.72997e-09 0)
(0.0714041 -5.13649e-09 0)
(0.0713266 7.28507e-09 0)
(0.0714022 -9.08399e-09 0)
(0.0713287 1.04693e-08 0)
(0.0714 -1.141e-08 0)
(0.0713309 1.18791e-08 0)
(0.0713978 -1.18814e-08 0)
(0.071333 1.14246e-08 0)
(0.0713959 -1.05613e-08 0)
(0.0713348 9.36377e-09 0)
(0.0713943 -7.94878e-09 0)
(0.0713361 6.45306e-09 0)
(0.0713931 -5.02664e-09 0)
(0.0713371 3.80797e-09 0)
(0.0713923 -2.88594e-09 0)
(0.0713378 2.29823e-09 0)
(0.0713917 -1.99595e-09 0)
(0.0713384 1.89144e-09 0)
(0.0713912 -1.84794e-09 0)
(0.0713389 1.76168e-09 0)
(0.0713906 -1.55923e-09 0)
(0.0713394 1.25448e-09 0)
(0.0713902 -8.9681e-10 0)
(0.0713398 5.80663e-10 0)
(0.0713899 -3.49878e-10 0)
(0.0713401 2.25425e-10 0)
(0.0713896 -1.5089e-10 0)
(0.0713404 7.74087e-11 0)
(0.0713893 4.85592e-11 0)
(0.0713406 -2.0808e-10 0)
(0.0713891 3.7508e-10 0)
(0.0713408 -4.90423e-10 0)
(0.0713889 5.62573e-10 0)
(0.071341 -5.99526e-10 0)
(0.0713887 6.51881e-10 0)
(0.0713412 -7.11164e-10 0)
(0.0713885 7.68975e-10 0)
(0.0713414 -7.69482e-10 0)
(0.0713883 7.04134e-10 0)
(0.0713416 -5.49203e-10 0)
(0.0713881 3.15093e-10 0)
(0.0713418 4.93062e-11 0)
(0.0713878 -5.67088e-10 0)
(0.0713422 1.26134e-09 0)
(0.0713874 -2.05062e-09 0)
(0.0713427 2.82565e-09 0)
(0.0713868 -3.4305e-09 0)
(0.0713433 3.78609e-09 0)
(0.0713862 -3.88929e-09 0)
(0.0713439 3.92143e-09 0)
(0.0713855 -4.187e-09 0)
(0.0713446 5.04083e-09 0)
(0.0713848 -6.6983e-09 0)
(0.0713455 9.08971e-09 0)
(0.0713837 -1.3518e-08 0)
(0.0713471 1.96792e-08 0)
(0.0713815 -5.43014e-08 0)
(0.0713527 7.85828e-08 0)
(0.0713737 -1.59815e-07 0)
(0.0500304 -0.000124014 0)
(0.0544557 -8.08707e-05 0)
(0.0540845 -5.1426e-05 0)
(0.0559597 -4.59659e-05 0)
(0.0562433 -3.51779e-05 0)
(0.0571884 -3.27958e-05 0)
(0.0576525 -2.89707e-05 0)
(0.0582938 -2.72586e-05 0)
(0.0587729 -2.53229e-05 0)
(0.0592903 -2.40267e-05 0)
(0.0597435 -2.27815e-05 0)
(0.0601965 -2.17854e-05 0)
(0.0606182 -2.08749e-05 0)
(0.0610299 -2.00871e-05 0)
(0.0614227 -1.93698e-05 0)
(0.0618041 -1.87237e-05 0)
(0.0621718 -1.81284e-05 0)
(0.0625288 -1.75782e-05 0)
(0.0628746 -1.70636e-05 0)
(0.0632106 -1.6579e-05 0)
(0.063537 -1.61191e-05 0)
(0.0638544 -1.56801e-05 0)
(0.064163 -1.52586e-05 0)
(0.0644634 -1.48523e-05 0)
(0.0647556 -1.4459e-05 0)
(0.06504 -1.40772e-05 0)
(0.0653168 -1.37058e-05 0)
(0.0655862 -1.33437e-05 0)
(0.0658484 -1.29903e-05 0)
(0.0661035 -1.26451e-05 0)
(0.0663518 -1.23078e-05 0)
(0.0665933 -1.1978e-05 0)
(0.0668283 -1.16554e-05 0)
(0.0670569 -1.13397e-05 0)
(0.0672792 -1.10308e-05 0)
(0.0674953 -1.07287e-05 0)
(0.0677055 -1.04339e-05 0)
(0.0679099 -1.01466e-05 0)
(0.0681085 -9.86672e-06 0)
(0.0683016 -9.59355e-06 0)
(0.0684894 -9.32611e-06 0)
(0.0686718 -9.06338e-06 0)
(0.068849 -8.80495e-06 0)
(0.0690212 -8.55144e-06 0)
(0.0691883 -8.30466e-06 0)
(0.0693506 -8.06714e-06 0)
(0.0695082 -7.84148e-06 0)
(0.0696615 -7.62925e-06 0)
(0.0698105 -7.43042e-06 0)
(0.0699559 -7.24251e-06 0)
(0.0700974 -7.06112e-06 0)
(0.0702355 -6.87953e-06 0)
(0.0703698 -6.69038e-06 0)
(0.0705007 -6.48493e-06 0)
(0.070627 -6.25567e-06 0)
(0.0707493 -5.99432e-06 0)
(0.0708655 -5.69558e-06 0)
(0.0709766 -5.35332e-06 0)
(0.0710796 -4.96632e-06 0)
(0.0711761 -4.53201e-06 0)
(0.0712623 -4.05529e-06 0)
(0.0713408 -3.53839e-06 0)
(0.0714066 -2.99405e-06 0)
(0.0714644 -2.42941e-06 0)
(0.0715077 -1.86505e-06 0)
(0.0715438 -1.31029e-06 0)
(0.0715646 -7.90814e-07 0)
(0.0715806 -3.12282e-07 0)
(0.0715813 9.91805e-08 0)
(0.0715813 4.48393e-07 0)
(0.0715666 7.12306e-07 0)
(0.0715566 9.10815e-07 0)
(0.0715321 1.02347e-06 0)
(0.0715183 1.08588e-06 0)
(0.0714892 1.07552e-06 0)
(0.0714768 1.04155e-06 0)
(0.0714469 9.52785e-07 0)
(0.0714396 8.6962e-07 0)
(0.0714107 7.46235e-07 0)
(0.0714103 6.53735e-07 0)
(0.0713828 5.27643e-07 0)
(0.0713898 4.51379e-07 0)
(0.0713627 3.39585e-07 0)
(0.071377 2.91009e-07 0)
(0.0713491 1.9825e-07 0)
(0.0713701 1.78772e-07 0)
(0.07134 1.02355e-07 0)
(0.0713673 1.08133e-07 0)
(0.0713338 4.23691e-08 0)
(0.071367 6.79687e-08 0)
(0.0713293 7.11856e-09 0)
(0.0713683 4.75595e-08 0)
(0.0713257 -1.2792e-08 0)
(0.0713704 3.86756e-08 0)
(0.0713224 -2.39364e-08 0)
(0.0713729 3.5855e-08 0)
(0.0713195 -3.03432e-08 0)
(0.0713756 3.5833e-08 0)
(0.0713166 -3.4205e-08 0)
(0.0713783 3.68118e-08 0)
(0.0713139 -3.65953e-08 0)
(0.0713809 3.78567e-08 0)
(0.0713113 -3.79679e-08 0)
(0.0713833 3.84986e-08 0)
(0.071309 -3.84847e-08 0)
(0.0713856 3.85001e-08 0)
(0.0713069 -3.81698e-08 0)
(0.0713876 3.77292e-08 0)
(0.071305 -3.69926e-08 0)
(0.0713893 3.60833e-08 0)
(0.0713035 -3.48746e-08 0)
(0.0713906 3.34517e-08 0)
(0.0713023 -3.17033e-08 0)
(0.0713917 2.97014e-08 0)
(0.0713014 -2.73532e-08 0)
(0.0713923 2.4738e-08 0)
(0.0713009 -2.1801e-08 0)
(0.0713926 1.86531e-08 0)
(0.0713008 -1.53186e-08 0)
(0.0713925 1.19708e-08 0)
(0.0713011 -8.73688e-09 0)
(0.0713921 5.85725e-09 0)
(0.0713016 -3.54905e-09 0)
(0.0713915 2.07284e-09 0)
(0.0713024 -1.63652e-09 0)
(0.0713907 2.40506e-09 0)
(0.0713032 -4.42241e-09 0)
(0.0713899 7.61579e-09 0)
(0.0713038 -1.1725e-08 0)
(0.0713894 1.63904e-08 0)
(0.0713042 -2.10585e-08 0)
(0.0713891 2.52076e-08 0)
(0.0713044 -2.82019e-08 0)
(0.0713889 2.96501e-08 0)
(0.0713047 -2.91525e-08 0)
(0.0713886 2.67051e-08 0)
(0.0713051 -2.23385e-08 0)
(0.0713879 1.64645e-08 0)
(0.071306 -9.46884e-09 0)
(0.0713868 1.94415e-09 0)
(0.0713074 5.63564e-09 0)
(0.0713851 -1.27841e-08 0)
(0.0713093 1.9154e-08 0)
(0.0713831 -2.44845e-08 0)
(0.0713114 2.85881e-08 0)
(0.0713809 -3.13754e-08 0)
(0.0713136 3.2764e-08 0)
(0.0713788 -3.27702e-08 0)
(0.0713156 3.14223e-08 0)
(0.071377 -2.88854e-08 0)
(0.0713173 2.53852e-08 0)
(0.0713755 -2.12788e-08 0)
(0.0713186 1.69788e-08 0)
(0.0713744 -1.29252e-08 0)
(0.0713195 9.51758e-09 0)
(0.0713736 -6.99738e-09 0)
(0.0713201 5.44844e-09 0)
(0.071373 -4.70175e-09 0)
(0.0713207 4.48574e-09 0)
(0.0713725 -4.39437e-09 0)
(0.0713212 4.13684e-09 0)
(0.071372 -3.52433e-09 0)
(0.0713217 2.62115e-09 0)
(0.0713715 -1.5888e-09 0)
(0.0713221 7.04374e-10 0)
(0.0713712 -7.88588e-11 0)
(0.0713224 -2.44754e-10 0)
(0.0713709 4.46566e-10 0)
(0.0713227 -6.68481e-10 0)
(0.0713706 1.0528e-09 0)
(0.0713229 -1.52838e-09 0)
(0.0713704 2.0114e-09 0)
(0.0713231 -2.33572e-09 0)
(0.0713702 2.54055e-09 0)
(0.0713233 -2.65611e-09 0)
(0.07137 2.82799e-09 0)
(0.0713235 -3.01712e-09 0)
(0.0713698 3.18904e-09 0)
(0.0713237 -3.1789e-09 0)
(0.0713697 2.9665e-09 0)
(0.0713239 -2.48227e-09 0)
(0.0713694 1.74811e-09 0)
(0.0713241 -6.07708e-10 0)
(0.0713691 -9.97691e-10 0)
(0.0713245 3.10931e-09 0)
(0.0713687 -5.4524e-09 0)
(0.071325 7.68308e-09 0)
(0.0713682 -9.34681e-09 0)
(0.0713256 1.02428e-08 0)
(0.0713676 -1.04147e-08 0)
(0.0713261 1.04513e-08 0)
(0.071367 -1.12498e-08 0)
(0.0713267 1.37561e-08 0)
(0.0713664 -1.84111e-08 0)
(0.0713275 2.48149e-08 0)
(0.0713655 -3.65332e-08 0)
(0.0713287 5.16781e-08 0)
(0.0713641 -1.40346e-07 0)
(0.0713321 1.45616e-07 0)
(0.0713661 -5.98255e-07 0)
(0.0500298 -0.000208789 0)
(0.0544602 -0.00013039 0)
(0.0540889 -8.85872e-05 0)
(0.0559638 -7.51317e-05 0)
(0.0562477 -5.95478e-05 0)
(0.0571927 -5.42257e-05 0)
(0.057657 -4.85642e-05 0)
(0.0582982 -4.53082e-05 0)
(0.0587774 -4.2298e-05 0)
(0.0592949 -4.00134e-05 0)
(0.0597482 -3.80047e-05 0)
(0.0602012 -3.63041e-05 0)
(0.0606229 -3.48063e-05 0)
(0.0610346 -3.34781e-05 0)
(0.0614272 -3.22865e-05 0)
(0.0618084 -3.12016e-05 0)
(0.0621757 -3.02074e-05 0)
(0.0625321 -2.92842e-05 0)
(0.0628772 -2.84219e-05 0)
(0.0632124 -2.76083e-05 0)
(0.0635376 -2.68364e-05 0)
(0.0638537 -2.60988e-05 0)
(0.0641608 -2.53908e-05 0)
(0.0644595 -2.47079e-05 0)
(0.0647498 -2.40472e-05 0)
(0.0650322 -2.3406e-05 0)
(0.0653068 -2.27822e-05 0)
(0.0655738 -2.21745e-05 0)
(0.0658335 -2.15816e-05 0)
(0.066086 -2.10028e-05 0)
(0.0663315 -2.04375e-05 0)
(0.0665702 -1.98852e-05 0)
(0.0668022 -1.93453e-05 0)
(0.0670278 -1.88173e-05 0)
(0.0672471 -1.83009e-05 0)
(0.0674601 -1.77963e-05 0)
(0.0676672 -1.7304e-05 0)
(0.0678684 -1.68244e-05 0)
(0.0680639 -1.63574e-05 0)
(0.0682538 -1.59021e-05 0)
(0.0684384 -1.54567e-05 0)
(0.0686177 -1.50196e-05 0)
(0.0687918 -1.45898e-05 0)
(0.0689609 -1.41682e-05 0)
(0.0691249 -1.37575e-05 0)
(0.0692842 -1.33618e-05 0)
(0.0694388 -1.29852e-05 0)
(0.0695891 -1.26308e-05 0)
(0.0697352 -1.22988e-05 0)
(0.0698775 -1.19857e-05 0)
(0.0700161 -1.16847e-05 0)
(0.0701513 -1.13853e-05 0)
(0.0702828 -1.10753e-05 0)
(0.0704111 -1.0741e-05 0)
(0.0705349 -1.03693e-05 0)
(0.0706549 -9.94709e-06 0)
(0.0707692 -9.46443e-06 0)
(0.0708788 -8.91191e-06 0)
(0.0709807 -8.2856e-06 0)
(0.0710766 -7.58229e-06 0)
(0.0711626 -6.80728e-06 0)
(0.0712415 -5.96589e-06 0)
(0.0713081 -5.07539e-06 0)
(0.0713672 -4.15018e-06 0)
(0.0714122 -3.21955e-06 0)
(0.0714504 -2.30312e-06 0)
(0.0714732 -1.43763e-06 0)
(0.0714917 -6.39051e-07 0)
(0.0714945 5.63345e-08 0)
(0.0714971 6.47115e-07 0)
(0.0714842 1.10385e-06 0)
(0.0714763 1.4472e-06 0)
(0.071453 1.65475e-06 0)
(0.0714408 1.77033e-06 0)
(0.0714122 1.77174e-06 0)
(0.0714009 1.72228e-06 0)
(0.071371 1.58964e-06 0)
(0.0713643 1.45235e-06 0)
(0.071335 1.2584e-06 0)
(0.071335 1.10009e-06 0)
(0.0713067 8.9909e-07 0)
(0.0713142 7.63682e-07 0)
(0.0712862 5.85507e-07 0)
(0.071301 4.93548e-07 0)
(0.0712721 3.47382e-07 0)
(0.0712937 3.02362e-07 0)
(0.0712626 1.84492e-07 0)
(0.0712906 1.80723e-07 0)
(0.0712561 8.19363e-08 0)
(0.0712902 1.1075e-07 0)
(0.0712514 2.13779e-08 0)
(0.0712914 7.46844e-08 0)
(0.0712476 -1.29409e-08 0)
(0.0712934 5.86671e-08 0)
(0.0712444 -3.22129e-08 0)
(0.0712959 5.33867e-08 0)
(0.0712414 -4.33798e-08 0)
(0.0712986 5.32217e-08 0)
(0.0712386 -5.02636e-08 0)
(0.0713012 5.50476e-08 0)
(0.0712359 -5.47512e-08 0)
(0.0713038 5.72212e-08 0)
(0.0712334 -5.76442e-08 0)
(0.0713062 5.89023e-08 0)
(0.0712311 -5.92192e-08 0)
(0.0713083 5.96485e-08 0)
(0.071229 -5.95005e-08 0)
(0.0713102 5.91972e-08 0)
(0.0712273 -5.84045e-08 0)
(0.0713119 5.73334e-08 0)
(0.0712258 -5.57619e-08 0)
(0.0713131 5.3829e-08 0)
(0.0712247 -5.13442e-08 0)
(0.0713141 4.8424e-08 0)
(0.0712239 -4.49118e-08 0)
(0.0713147 4.09378e-08 0)
(0.0712235 -3.64141e-08 0)
(0.0713149 3.15273e-08 0)
(0.0712235 -2.63248e-08 0)
(0.0713147 2.10985e-08 0)
(0.0712238 -1.60704e-08 0)
(0.0713142 1.16429e-08 0)
(0.0712245 -8.1807e-09 0)
(0.0713135 6.11357e-09 0)
(0.0712252 -5.7798e-09 0)
(0.0713127 7.43773e-09 0)
(0.071226 -1.11406e-08 0)
(0.071312 1.67465e-08 0)
(0.0712267 -2.38004e-08 0)
(0.0713114 3.16903e-08 0)
(0.0712271 -3.94895e-08 0)
(0.0713111 4.63395e-08 0)
(0.0712274 -5.1203e-08 0)
(0.0713108 5.3459e-08 0)
(0.0712277 -5.24812e-08 0)
(0.0713104 4.8293e-08 0)
(0.0712283 -4.09748e-08 0)
(0.0713096 3.12172e-08 0)
(0.0712293 -1.96646e-08 0)
(0.0713083 7.2794e-09 0)
(0.0712308 5.1689e-09 0)
(0.0713066 -1.69031e-08 0)
(0.0712327 2.73627e-08 0)
(0.0713045 -3.61307e-08 0)
(0.0712349 4.29004e-08 0)
(0.0713024 -4.7524e-08 0)
(0.071237 4.9862e-08 0)
(0.0713003 -4.99412e-08 0)
(0.0712389 4.7813e-08 0)
(0.0712985 -4.37573e-08 0)
(0.0712405 3.81555e-08 0)
(0.0712971 -3.16014e-08 0)
(0.0712418 2.4777e-08 0)
(0.0712961 -1.83944e-08 0)
(0.0712426 1.30916e-08 0)
(0.0712954 -9.2378e-09 0)
(0.0712433 6.93977e-09 0)
(0.0712948 -5.89616e-09 0)
(0.0712438 5.65252e-09 0)
(0.0712942 -5.54972e-09 0)
(0.0712444 5.13343e-09 0)
(0.0712937 -4.1285e-09 0)
(0.0712448 2.66584e-09 0)
(0.0712933 -1.02182e-09 0)
(0.0712452 -3.56383e-10 0)
(0.071293 1.30981e-09 0)
(0.0712455 -1.78931e-09 0)
(0.0712927 2.10061e-09 0)
(0.0712458 -2.46997e-09 0)
(0.0712924 3.11063e-09 0)
(0.071246 -3.89031e-09 0)
(0.0712922 4.66779e-09 0)
(0.0712462 -5.18357e-09 0)
(0.071292 5.51737e-09 0)
(0.0712464 -5.72322e-09 0)
(0.0712918 6.03263e-09 0)
(0.0712466 -6.3662e-09 0)
(0.0712916 6.65803e-09 0)
(0.0712468 -6.6396e-09 0)
(0.0712915 6.28336e-09 0)
(0.071247 -5.47433e-09 0)
(0.0712912 4.23785e-09 0)
(0.0712472 -2.31507e-09 0)
(0.0712909 -3.72787e-10 0)
(0.0712476 3.8581e-09 0)
(0.0712905 -7.65075e-09 0)
(0.071248 1.11658e-08 0)
(0.07129 -1.36699e-08 0)
(0.0712486 1.4875e-08 0)
(0.0712895 -1.49056e-08 0)
(0.071249 1.47583e-08 0)
(0.0712891 -1.58421e-08 0)
(0.0712495 1.95076e-08 0)
(0.0712886 -2.61343e-08 0)
(0.07125 3.46154e-08 0)
(0.071288 -4.98187e-08 0)
(0.0712506 6.56567e-08 0)
(0.0712877 -1.82522e-07 0)
(0.0712521 8.26275e-08 0)
(0.0712928 -1.24088e-06 0)
(0.0500294 -0.00029403 0)
(0.054468 -0.00018003 0)
(0.0540958 -0.000125616 0)
(0.0559703 -0.000104289 0)
(0.0562543 -8.38746e-05 0)
(0.0571993 -7.56512e-05 0)
(0.0576636 -6.81431e-05 0)
(0.058305 -6.33544e-05 0)
(0.0587843 -5.92671e-05 0)
(0.0593019 -5.59979e-05 0)
(0.0597553 -5.32245e-05 0)
(0.0602083 -5.08196e-05 0)
(0.06063 -4.87325e-05 0)
(0.0610416 -4.68613e-05 0)
(0.0614339 -4.51913e-05 0)
(0.0618147 -4.36626e-05 0)
(0.0621813 -4.22634e-05 0)
(0.0625368 -4.09604e-05 0)
(0.0628807 -3.9743e-05 0)
(0.0632143 -3.85924e-05 0)
(0.0635377 -3.75004e-05 0)
(0.0638517 -3.64561e-05 0)
(0.0641565 -3.54536e-05 0)
(0.0644525 -3.44865e-05 0)
(0.0647399 -3.35509e-05 0)
(0.065019 -3.26432e-05 0)
(0.0652902 -3.17608e-05 0)
(0.0655535 -3.09015e-05 0)
(0.0658093 -3.00638e-05 0)
(0.0660578 -2.92467e-05 0)
(0.0662991 -2.84493e-05 0)
(0.0665335 -2.76709e-05 0)
(0.0667611 -2.69107e-05 0)
(0.0669822 -2.61679e-05 0)
(0.0671968 -2.54422e-05 0)
(0.0674052 -2.47335e-05 0)
(0.0676076 -2.40426e-05 0)
(0.067804 -2.33701e-05 0)
(0.0679948 -2.27157e-05 0)
(0.06818 -2.20782e-05 0)
(0.0683598 -2.14554e-05 0)
(0.0685344 -2.08448e-05 0)
(0.0687038 -2.0245e-05 0)
(0.0688683 -1.96568e-05 0)
(0.0690278 -1.90836e-05 0)
(0.0691826 -1.85308e-05 0)
(0.0693327 -1.80043e-05 0)
(0.0694786 -1.75084e-05 0)
(0.0696202 -1.70438e-05 0)
(0.0697582 -1.66065e-05 0)
(0.0698924 -1.61875e-05 0)
(0.0700235 -1.57729e-05 0)
(0.0701508 -1.53463e-05 0)
(0.070275 -1.48888e-05 0)
(0.070395 -1.43824e-05 0)
(0.0705115 -1.38089e-05 0)
(0.0706226 -1.31542e-05 0)
(0.0707293 -1.24047e-05 0)
(0.0708286 -1.15545e-05 0)
(0.0709226 -1.05983e-05 0)
(0.071007 -9.54262e-06 0)
(0.071085 -8.39379e-06 0)
(0.0711512 -7.17458e-06 0)
(0.0712105 -5.90411e-06 0)
(0.0712559 -4.62163e-06 0)
(0.0712953 -3.35417e-06 0)
(0.0713195 -2.15151e-06 0)
(0.0713398 -1.03674e-06 0)
(0.0713444 -5.94589e-08 0)
(0.071349 7.76008e-07 0)
(0.0713378 1.42948e-06 0)
(0.071332 1.92599e-06 0)
(0.0713101 2.23577e-06 0)
(0.0712996 2.41512e-06 0)
(0.0712719 2.43609e-06 0)
(0.0712619 2.38128e-06 0)
(0.0712323 2.2108e-06 0)
(0.0712266 2.02745e-06 0)
(0.0711971 1.76624e-06 0)
(0.0711979 1.54766e-06 0)
(0.071169 1.2725e-06 0)
(0.0711772 1.0814e-06 0)
(0.0711484 8.35737e-07 0)
(0.0711639 7.02476e-07 0)
(0.0711341 5.00795e-07 0)
(0.0711565 4.31595e-07 0)
(0.0711244 2.69859e-07 0)
(0.0711532 2.57604e-07 0)
(0.0711177 1.23526e-07 0)
(0.0711527 1.56486e-07 0)
(0.0711129 3.67076e-08 0)
(0.0711538 1.03688e-07 0)
(0.071109 -1.26042e-08 0)
(0.0711559 7.97468e-08 0)
(0.0711057 -4.02641e-08 0)
(0.0711583 7.14354e-08 0)
(0.0711027 -5.62189e-08 0)
(0.0711609 7.06985e-08 0)
(0.0710999 -6.60092e-08 0)
(0.0711635 7.30256e-08 0)
(0.0710973 -7.2402e-08 0)
(0.071166 7.6031e-08 0)
(0.0710948 -7.65929e-08 0)
(0.0711684 7.84882e-08 0)
(0.0710926 -7.90019e-08 0)
(0.0711705 7.97468e-08 0)
(0.0710906 -7.96719e-08 0)
(0.0711723 7.94153e-08 0)
(0.0710889 -7.84786e-08 0)
(0.0711738 7.71704e-08 0)
(0.0710875 -7.51697e-08 0)
(0.071175 7.2672e-08 0)
(0.0710865 -6.94092e-08 0)
(0.0711759 6.55423e-08 0)
(0.0710859 -6.08556e-08 0)
(0.0711764 5.55295e-08 0)
(0.0710856 -4.94496e-08 0)
(0.0711765 4.28774e-08 0)
(0.0710856 -3.58886e-08 0)
(0.0711762 2.88917e-08 0)
(0.071086 -2.22041e-08 0)
(0.0711757 1.63828e-08 0)
(0.0710867 -1.19325e-08 0)
(0.0711749 9.43697e-09 0)
(0.0710875 -9.3485e-09 0)
(0.0711741 1.19981e-08 0)
(0.0710883 -1.74286e-08 0)
(0.0711733 2.54132e-08 0)
(0.071089 -3.52924e-08 0)
(0.0711727 4.62027e-08 0)
(0.0710895 -5.6858e-08 0)
(0.0711723 6.60866e-08 0)
(0.0710899 -7.24874e-08 0)
(0.0711719 7.52457e-08 0)
(0.0710903 -7.35519e-08 0)
(0.0711714 6.74831e-08 0)
(0.071091 -5.7195e-08 0)
(0.0711705 4.36542e-08 0)
(0.0710922 -2.77596e-08 0)
(0.0711691 1.08161e-08 0)
(0.0710938 6.1348e-09 0)
(0.0711673 -2.20574e-08 0)
(0.0710957 3.6202e-08 0)
(0.0711652 -4.80168e-08 0)
(0.0710978 5.70915e-08 0)
(0.0711631 -6.3231e-08 0)
(0.0710999 6.62505e-08 0)
(0.0711611 -6.61954e-08 0)
(0.0711018 6.31525e-08 0)
(0.0711594 -5.75214e-08 0)
(0.0711033 4.98434e-08 0)
(0.071158 -4.09409e-08 0)
(0.0711045 3.17527e-08 0)
(0.0711571 -2.32366e-08 0)
(0.0711053 1.62396e-08 0)
(0.0711564 -1.12291e-08 0)
(0.071106 8.31017e-09 0)
(0.0711558 -7.03899e-09 0)
(0.0711065 6.78315e-09 0)
(0.0711552 -6.64983e-09 0)
(0.071107 6.0454e-09 0)
(0.0711548 -4.63444e-09 0)
(0.0711075 2.62514e-09 0)
(0.0711544 -4.06581e-10 0)
(0.0711078 -1.41989e-09 0)
(0.071154 2.66488e-09 0)
(0.0711081 -3.28486e-09 0)
(0.0711537 3.70854e-09 0)
(0.0711084 -4.23653e-09 0)
(0.0711535 5.13732e-09 0)
(0.0711087 -6.21309e-09 0)
(0.0711533 7.26845e-09 0)
(0.0711089 -7.96399e-09 0)
(0.071153 8.42598e-09 0)
(0.0711091 -8.73153e-09 0)
(0.0711529 9.18876e-09 0)
(0.0711092 -9.67242e-09 0)
(0.0711527 1.00836e-08 0)
(0.0711094 -1.00581e-08 0)
(0.0711525 9.56504e-09 0)
(0.0711096 -8.44703e-09 0)
(0.0711523 6.73011e-09 0)
(0.0711099 -4.06288e-09 0)
(0.071152 3.64985e-10 0)
(0.0711102 4.36281e-09 0)
(0.0711516 -9.40291e-09 0)
(0.0711106 1.3935e-08 0)
(0.0711511 -1.69739e-08 0)
(0.0711111 1.81778e-08 0)
(0.0711507 -1.77713e-08 0)
(0.0711115 1.71312e-08 0)
(0.0711504 -1.80675e-08 0)
(0.0711118 2.2139e-08 0)
(0.0711501 -2.94081e-08 0)
(0.071112 3.77514e-08 0)
(0.0711499 -5.27716e-08 0)
(0.0711121 6.32436e-08 0)
(0.0711504 -2.00137e-07 0)
(0.0711125 -5.13222e-09 0)
(0.0711558 -1.96119e-06 0)
(0.050029 -0.000379349 0)
(0.0544789 -0.000230009 0)
(0.0541053 -0.000162478 0)
(0.0559793 -0.000133516 0)
(0.0562632 -0.000108152 0)
(0.0572081 -9.70998e-05 0)
(0.0576726 -8.77103e-05 0)
(0.058314 -8.14104e-05 0)
(0.0587934 -7.62354e-05 0)
(0.0593112 -7.19876e-05 0)
(0.0597647 -6.84452e-05 0)
(0.0602178 -6.53357e-05 0)
(0.0606393 -6.26543e-05 0)
(0.0610507 -6.02356e-05 0)
(0.0614426 -5.80799e-05 0)
(0.0618225 -5.60995e-05 0)
(0.062188 -5.42857e-05 0)
(0.0625421 -5.25926e-05 0)
(0.0628841 -5.1009e-05 0)
(0.0632155 -4.95101e-05 0)
(0.0635364 -4.80864e-05 0)
(0.0638474 -4.67238e-05 0)
(0.0641487 -4.54154e-05 0)
(0.0644409 -4.41533e-05 0)
(0.0647241 -4.29327e-05 0)
(0.0649988 -4.1749e-05 0)
(0.0652652 -4.05991e-05 0)
(0.0655235 -3.94803e-05 0)
(0.065774 -3.83908e-05 0)
(0.0660169 -3.7329e-05 0)
(0.0662525 -3.62941e-05 0)
(0.066481 -3.5285e-05 0)
(0.0667026 -3.43006e-05 0)
(0.0669175 -3.334e-05 0)
(0.0671259 -3.24025e-05 0)
(0.0673281 -3.14881e-05 0)
(0.0675241 -3.05974e-05 0)
(0.0677142 -2.97312e-05 0)
(0.0678986 -2.88892e-05 0)
(0.0680775 -2.807e-05 0)
(0.068251 -2.72706e-05 0)
(0.0684194 -2.64878e-05 0)
(0.0685826 -2.57196e-05 0)
(0.0687409 -2.49668e-05 0)
(0.0688943 -2.42332e-05 0)
(0.0690431 -2.35255e-05 0)
(0.0691873 -2.28511e-05 0)
(0.0693274 -2.22155e-05 0)
(0.0694633 -2.16201e-05 0)
(0.0695956 -2.10603e-05 0)
(0.0697241 -2.05256e-05 0)
(0.0698497 -1.99986e-05 0)
(0.0699715 -1.94595e-05 0)
(0.0700905 -1.88842e-05 0)
(0.0702054 -1.82506e-05 0)
(0.0703171 -1.75347e-05 0)
(0.0704235 -1.67192e-05 0)
(0.0705261 -1.57857e-05 0)
(0.0706217 -1.47268e-05 0)
(0.0707124 -1.35341e-05 0)
(0.070794 -1.22159e-05 0)
(0.0708699 -1.0778e-05 0)
(0.0709344 -9.24942e-06 0)
(0.0709928 -7.65176e-06 0)
(0.0710378 -6.03542e-06 0)
(0.0710774 -4.43184e-06 0)
(0.071102 -2.90575e-06 0)
(0.0711236 -1.48404e-06 0)
(0.0711293 -2.32454e-07 0)
(0.0711358 8.45301e-07 0)
(0.0711261 1.69425e-06 0)
(0.0711222 2.34759e-06 0)
(0.0711017 2.76305e-06 0)
(0.0710931 3.01371e-06 0)
(0.0710665 3.05984e-06 0)
(0.071058 3.00852e-06 0)
(0.071029 2.80561e-06 0)
(0.0710245 2.58432e-06 0)
(0.0709951 2.25963e-06 0)
(0.0709969 1.98725e-06 0)
(0.0709678 1.63963e-06 0)
(0.0709768 1.39753e-06 0)
(0.0709475 1.0843e-06 0)
(0.0709637 9.13008e-07 0)
(0.0709333 6.54556e-07 0)
(0.0709564 5.63514e-07 0)
(0.0709235 3.56067e-07 0)
(0.0709532 3.37115e-07 0)
(0.0709168 1.65779e-07 0)
(0.0709527 2.04336e-07 0)
(0.0709118 5.23701e-08 0)
(0.0709538 1.34202e-07 0)
(0.070908 -1.2176e-08 0)
(0.0709557 1.0179e-07 0)
(0.0709046 -4.83066e-08 0)
(0.0709582 8.99901e-08 0)
(0.0709016 -6.8988e-08 0)
(0.0709608 8.82946e-08 0)
(0.0708988 -8.15215e-08 0)
(0.0709634 9.07838e-08 0)
(0.0708962 -8.95964e-08 0)
(0.0709658 9.43132e-08 0)
(0.0708938 -9.48367e-08 0)
(0.0709681 9.72645e-08 0)
(0.0708916 -9.7831e-08 0)
(0.0709701 9.87807e-08 0)
(0.0708897 -9.86591e-08 0)
(0.0709719 9.83469e-08 0)
(0.0708881 -9.7169e-08 0)
(0.0709733 9.55398e-08 0)
(0.0708868 -9.30376e-08 0)
(0.0709744 8.99163e-08 0)
(0.0708859 -8.58332e-08 0)
(0.0709752 8.09938e-08 0)
(0.0708853 -7.51282e-08 0)
(0.0709755 6.84663e-08 0)
(0.0708851 -6.08724e-08 0)
(0.0709756 5.26808e-08 0)
(0.0708853 -4.39988e-08 0)
(0.0709752 3.53462e-08 0)
(0.0708858 -2.71334e-08 0)
(0.0709746 2.0061e-08 0)
(0.0708865 -1.47632e-08 0)
(0.0709738 1.19607e-08 0)
(0.0708873 -1.22033e-08 0)
(0.070973 1.5876e-08 0)
(0.0708882 -2.29972e-08 0)
(0.0709721 3.32446e-08 0)
(0.0708889 -4.57558e-08 0)
(0.0709715 5.94242e-08 0)
(0.0708895 -7.26279e-08 0)
(0.070971 8.39101e-08 0)
(0.07089 -9.15467e-08 0)
(0.0709705 9.45618e-08 0)
(0.0708906 -9.2001e-08 0)
(0.0709698 8.40101e-08 0)
(0.0708914 -7.08356e-08 0)
(0.0709687 5.37077e-08 0)
(0.0708927 -3.37674e-08 0)
(0.0709672 1.26307e-08 0)
(0.0708944 8.41438e-09 0)
(0.0709654 -2.81038e-08 0)
(0.0708963 4.55217e-08 0)
(0.0709633 -5.99989e-08 0)
(0.0708984 7.10368e-08 0)
(0.0709613 -7.84015e-08 0)
(0.0709005 8.18746e-08 0)
(0.0709593 -8.15253e-08 0)
(0.0709023 7.74854e-08 0)
(0.0709577 -7.0274e-08 0)
(0.0709038 6.05897e-08 0)
(0.0709564 -4.947e-08 0)
(0.0709049 3.80925e-08 0)
(0.0709554 -2.76332e-08 0)
(0.0709057 1.91205e-08 0)
(0.0709547 -1.30969e-08 0)
(0.0709063 9.64952e-09 0)
(0.0709542 -8.19137e-09 0)
(0.0709068 7.92282e-09 0)
(0.0709536 -7.73877e-09 0)
(0.0709074 6.92723e-09 0)
(0.0709531 -5.1107e-09 0)
(0.0709078 2.5776e-09 0)
(0.0709527 1.77008e-10 0)
(0.0709082 -2.41403e-09 0)
(0.0709524 3.92586e-09 0)
(0.0709085 -4.6804e-09 0)
(0.0709521 5.22235e-09 0)
(0.0709087 -5.91732e-09 0)
(0.0709519 7.07755e-09 0)
(0.070909 -8.44036e-09 0)
(0.0709516 9.76114e-09 0)
(0.0709092 -1.0632e-08 0)
(0.0709514 1.12272e-08 0)
(0.0709094 -1.16444e-08 0)
(0.0709512 1.22602e-08 0)
(0.0709096 -1.29019e-08 0)
(0.070951 1.34388e-08 0)
(0.0709098 -1.34189e-08 0)
(0.0709509 1.28107e-08 0)
(0.07091 -1.14176e-08 0)
(0.0709506 9.2666e-09 0)
(0.0709102 -5.92643e-09 0)
(0.0709504 1.33109e-09 0)
(0.0709105 4.46871e-09 0)
(0.07095 -1.05266e-08 0)
(0.0709109 1.58002e-08 0)
(0.0709496 -1.90797e-08 0)
(0.0709113 1.99942e-08 0)
(0.0709493 -1.887e-08 0)
(0.0709116 1.74188e-08 0)
(0.0709491 -1.77448e-08 0)
(0.0709117 2.14681e-08 0)
(0.070949 -2.81945e-08 0)
(0.0709117 3.47094e-08 0)
(0.0709491 -4.73245e-08 0)
(0.0709114 5.02973e-08 0)
(0.0709501 -2.0826e-07 0)
(0.0709115 -8.20215e-08 0)
(0.0709546 -2.69517e-06 0)
(0.0500285 -0.00046486 0)
(0.0544927 -0.000280157 0)
(0.0541175 -0.000199307 0)
(0.0559907 -0.000162742 0)
(0.0562745 -0.000132422 0)
(0.0572193 -0.000118552 0)
(0.0576838 -0.00010728 0)
(0.0583254 -9.94721e-05 0)
(0.058805 -9.32086e-05 0)
(0.0593229 -8.79823e-05 0)
(0.0597765 -8.36681e-05 0)
(0.0602296 -7.98502e-05 0)
(0.0606509 -7.65683e-05 0)
(0.0610617 -7.35939e-05 0)
(0.0614528 -7.09424e-05 0)
(0.0618315 -6.84985e-05 0)
(0.0621954 -6.6257e-05 0)
(0.0625472 -6.41595e-05 0)
(0.0628867 -6.21949e-05 0)
(0.0632149 -6.03325e-05 0)
(0.0635321 -5.85618e-05 0)
(0.0638389 -5.68662e-05 0)
(0.0641356 -5.52377e-05 0)
(0.0644226 -5.3667e-05 0)
(0.0647003 -5.21487e-05 0)
(0.0649691 -5.06773e-05 0)
(0.0652291 -4.92493e-05 0)
(0.0654808 -4.78615e-05 0)
(0.0657244 -4.65116e-05 0)
(0.0659602 -4.51979e-05 0)
(0.0661885 -4.39192e-05 0)
(0.0664094 -4.26741e-05 0)
(0.0666234 -4.14613e-05 0)
(0.0668305 -4.02795e-05 0)
(0.0670311 -3.91278e-05 0)
(0.0672253 -3.80059e-05 0)
(0.0674134 -3.69146e-05 0)
(0.0675956 -3.58544e-05 0)
(0.0677721 -3.48251e-05 0)
(0.067943 -3.38249e-05 0)
(0.0681087 -3.28503e-05 0)
(0.0682692 -3.18972e-05 0)
(0.0684247 -3.09631e-05 0)
(0.0685754 -3.00484e-05 0)
(0.0687213 -2.91576e-05 0)
(0.0688627 -2.82981e-05 0)
(0.0689996 -2.74789e-05 0)
(0.0691325 -2.67063e-05 0)
(0.0692612 -2.59831e-05 0)
(0.0693866 -2.53035e-05 0)
(0.0695082 -2.46561e-05 0)
(0.069627 -2.40204e-05 0)
(0.0697422 -2.33734e-05 0)
(0.0698547 -2.2686e-05 0)
(0.0699632 -2.19324e-05 0)
(0.0700689 -2.10832e-05 0)
(0.0701696 -2.01181e-05 0)
(0.0702668 -1.90135e-05 0)
(0.0703574 -1.77612e-05 0)
(0.0704437 -1.63488e-05 0)
(0.0705214 -1.4787e-05 0)
(0.070594 -1.30797e-05 0)
(0.0706558 -1.1263e-05 0)
(0.0707122 -9.35863e-06 0)
(0.0707557 -7.42924e-06 0)
(0.0707947 -5.50814e-06 0)
(0.0708192 -3.67625e-06 0)
(0.0708412 -1.96142e-06 0)
(0.0708477 -4.47548e-07 0)
(0.0708555 8.65236e-07 0)
(0.0708471 1.90421e-06 0)
(0.0708451 2.71375e-06 0)
(0.070826 3.23513e-06 0)
(0.0708192 3.56149e-06 0)
(0.0707938 3.63661e-06 0)
(0.0707871 3.5958e-06 0)
(0.0707589 3.3655e-06 0)
(0.070756 3.11376e-06 0)
(0.070727 2.73006e-06 0)
(0.07073 2.41043e-06 0)
(0.0707009 1.99337e-06 0)
(0.0707108 1.70532e-06 0)
(0.0706813 1.32598e-06 0)
(0.0706984 1.12026e-06 0)
(0.0706673 8.05248e-07 0)
(0.0706913 6.94838e-07 0)
(0.0706577 4.41134e-07 0)
(0.0706882 4.17163e-07 0)
(0.070651 2.07712e-07 0)
(0.0706877 2.52994e-07 0)
(0.070646 6.80057e-08 0)
(0.0706889 1.65389e-07 0)
(0.0706421 -1.16641e-08 0)
(0.0706909 1.24225e-07 0)
(0.0706388 -5.61702e-08 0)
(0.0706933 1.08621e-07 0)
(0.0706358 -8.14403e-08 0)
(0.0706959 1.05659e-07 0)
(0.070633 -9.65324e-08 0)
(0.0706984 1.08021e-07 0)
(0.0706304 -1.06074e-07 0)
(0.0707009 1.11805e-07 0)