/*--------------------------------*- C++ -*----------------------------------*\
| =========                 |                                                 |
| \\      /  F ield         | OpenFOAM: The Open Source CFD Toolbox           |
|  \\    /   O peration     | Version:  2412                                  |
|   \\  /    A nd           | Website:  www.openfoam.com                      |
|    \\/     M anipulation  |                                                 |
\*---------------------------------------------------------------------------*/
FoamFile
{
    version     2.0;
    format      ascii;
    arch        "LSB;label=32;scalar=64";
    class       volScalarField;
    location    "600";
    object      p;
}
// * * * * * * * * * * * * * * * * * * * * * * * * * * * * * * * * * * * * * //

dimensions      [0 2 -2 0 0 0 0];

internalField   nonuniform List<scalar> 
8000
(
0.00307267
0.00283804
0.00285983
0.00275587
0.00274064
0.00268705
0.00266076
0.00262381
0.00259604
0.00256578
0.00253907
0.00251221
0.002487
0.00246226
0.00243847
0.00241525
0.00239268
0.00237065
0.00234913
0.00232807
0.00230744
0.0022872
0.00226734
0.00224781
0.00222863
0.00220971
0.00219112
0.00217274
0.00215468
0.00213679
0.0021192
0.00210175
0.00208458
0.00206753
0.00205075
0.00203406
0.00201763
0.00200127
0.00198516
0.00196911
0.00195329
0.00193752
0.00192197
0.00190647
0.00189117
0.00187591
0.00186085
0.00184581
0.00183097
0.00181615
0.0018015
0.00178688
0.00177243
0.00175799
0.00174371
0.00172945
0.00171534
0.00170125
0.00168729
0.00167335
0.00165954
0.00164575
0.00163208
0.00161842
0.00160488
0.00159136
0.00157794
0.00156454
0.00155123
0.00153795
0.00152475
0.00151158
0.00149848
0.00148542
0.00147242
0.00145945
0.00144655
0.00143367
0.00142085
0.00140806
0.00139533
0.00138263
0.00136997
0.00135734
0.00134477
0.00133221
0.00131971
0.00130722
0.00129478
0.00128236
0.00126999
0.00125763
0.00124532
0.00123302
0.00122076
0.00120852
0.00119632
0.00118413
0.00117198
0.00115984
0.00114774
0.00113565
0.00112359
0.00111155
0.00109954
0.00108753
0.00107556
0.0010636
0.00105167
0.00103974
0.00102785
0.00101596
0.0010041
0.000992251
0.000980425
0.000968608
0.000956813
0.000945028
0.000933263
0.000921506
0.000909768
0.000898037
0.000886323
0.000874615
0.000862922
0.000851234
0.00083956
0.000827891
0.000816237
0.000804589
0.000792956
0.000781332
0.000769726
0.000758132
0.000746558
0.000734998
0.000723462
0.000711941
0.000700443
0.000688962
0.000677503
0.000666059
0.000654635
0.000643222
0.000631825
0.000620436
0.00060906
0.000597686
0.000586321
0.000574955
0.000563596
0.000552232
0.000540873
0.000529506
0.000518144
0.000506773
0.000495407
0.000484031
0.00047266
0.000461279
0.000449904
0.000438518
0.000427139
0.00041575
0.000404369
0.000392978
0.000381595
0.000370202
0.000358817
0.000347424
0.000336038
0.000324644
0.000313258
0.000301864
0.000290477
0.000279083
0.000267696
0.000256302
0.000244915
0.000233521
0.000222134
0.000210739
0.000199353
0.000187958
0.000176572
0.000165177
0.00015379
0.000142396
0.000131009
0.000119614
0.000108228
9.68331e-05
8.54462e-05
7.40519e-05
6.26647e-05
5.1271e-05
3.98821e-05
2.84898e-05
1.70857e-05
5.69817e-06
0.00307276
0.00283803
0.00285978
0.00275587
0.00274062
0.00268705
0.00266075
0.00262381
0.00259604
0.00256578
0.00253906
0.0025122
0.002487
0.00246225
0.00243847
0.00241524
0.00239268
0.00237065
0.00234913
0.00232807
0.00230744
0.0022872
0.00226734
0.00224781
0.00222863
0.00220971
0.00219112
0.00217274
0.00215468
0.00213679
0.0021192
0.00210175
0.00208458
0.00206753
0.00205075
0.00203406
0.00201763
0.00200127
0.00198516
0.00196911
0.00195329
0.00193752
0.00192197
0.00190647
0.00189117
0.00187591
0.00186085
0.00184581
0.00183097
0.00181615
0.0018015
0.00178688
0.00177243
0.00175799
0.00174371
0.00172945
0.00171534
0.00170125
0.00168729
0.00167335
0.00165954
0.00164575
0.00163208
0.00161842
0.00160488
0.00159136
0.00157794
0.00156453
0.00155123
0.00153795
0.00152475
0.00151158
0.00149848
0.00148542
0.00147242
0.00145945
0.00144655
0.00143367
0.00142085
0.00140806
0.00139533
0.00138263
0.00136997
0.00135734
0.00134477
0.00133221
0.00131971
0.00130722
0.00129478
0.00128236
0.00126999
0.00125763
0.00124532
0.00123302
0.00122076
0.00120852
0.00119632
0.00118413
0.00117198
0.00115984
0.00114774
0.00113565
0.00112359
0.00111155
0.00109954
0.00108753
0.00107556
0.0010636
0.00105167
0.00103974
0.00102785
0.00101596
0.0010041
0.000992251
0.000980425
0.000968608
0.000956813
0.000945028
0.000933263
0.000921506
0.000909768
0.000898037
0.000886323
0.000874615
0.000862922
0.000851234
0.00083956
0.000827891
0.000816237
0.000804589
0.000792956
0.000781332
0.000769726
0.000758132
0.000746558
0.000734998
0.000723462
0.000711941
0.000700443
0.000688962
0.000677503
0.000666059
0.000654635
0.000643222
0.000631825
0.000620436
0.000609059
0.000597686
0.000586321
0.000574955
0.000563596
0.000552232
0.000540873
0.000529506
0.000518144
0.000506773
0.000495407
0.000484031
0.00047266
0.000461279
0.000449904
0.000438518
0.000427139
0.00041575
0.000404369
0.000392978
0.000381595
0.000370202
0.000358817
0.000347424
0.000336038
0.000324644
0.000313258
0.000301864
0.000290477
0.000279083
0.000267696
0.000256302
0.000244915
0.000233521
0.000222134
0.000210739
0.000199353
0.000187958
0.000176572
0.000165177
0.00015379
0.000142396
0.000131009
0.000119614
0.000108228
9.68331e-05
8.54462e-05
7.40519e-05
6.26647e-05
5.1271e-05
3.98821e-05
2.84898e-05
1.70856e-05
5.69811e-06
0.00307297
0.00283794
0.00285974
0.00275585
0.0027406
0.00268704
0.00266075
0.0026238
0.00259603
0.00256578
0.00253906
0.0025122
0.00248699
0.00246225
0.00243846
0.00241524
0.00239268
0.00237065
0.00234913
0.00232807
0.00230744
0.0022872
0.00226734
0.00224781
0.00222862
0.00220971
0.00219111
0.00217274
0.00215468
0.00213679
0.0021192
0.00210175
0.00208458
0.00206753
0.00205075
0.00203406
0.00201762
0.00200127
0.00198516
0.00196911
0.00195329
0.00193752
0.00192197
0.00190647
0.00189117
0.00187591
0.00186085
0.00184581
0.00183097
0.00181615
0.0018015
0.00178688
0.00177243
0.00175799
0.00174371
0.00172945
0.00171534
0.00170125
0.00168729
0.00167335
0.00165954
0.00164575
0.00163208
0.00161842
0.00160488
0.00159135
0.00157794
0.00156453
0.00155123
0.00153795
0.00152475
0.00151158
0.00149848
0.00148542
0.00147242
0.00145945
0.00144655
0.00143367
0.00142085
0.00140806
0.00139533
0.00138263
0.00136997
0.00135734
0.00134477
0.00133221
0.00131971
0.00130722
0.00129478
0.00128236
0.00126999
0.00125763
0.00124532
0.00123302
0.00122076
0.00120852
0.00119632
0.00118413
0.00117198
0.00115984
0.00114774
0.00113565
0.00112359
0.00111155
0.00109954
0.00108753
0.00107556
0.0010636
0.00105167
0.00103974
0.00102785
0.00101596
0.0010041
0.000992251
0.000980425
0.000968608
0.000956813
0.000945028
0.000933263
0.000921506
0.000909768
0.000898037
0.000886323
0.000874615
0.000862922
0.000851234
0.00083956
0.000827891
0.000816237
0.000804589
0.000792956
0.000781332
0.000769726
0.000758132
0.000746558
0.000734998
0.000723461
0.000711941
0.000700443
0.000688962
0.000677503
0.000666059
0.000654635
0.000643222
0.000631825
0.000620436
0.000609059
0.000597686
0.000586321
0.000574955
0.000563596
0.000552232
0.000540873
0.000529506
0.000518144
0.000506773
0.000495407
0.000484031
0.00047266
0.000461279
0.000449904
0.000438518
0.000427139
0.00041575
0.000404369
0.000392978
0.000381595
0.000370202
0.000358817
0.000347424
0.000336038
0.000324644
0.000313258
0.000301864
0.000290477
0.000279083
0.000267696
0.000256302
0.000244915
0.000233521
0.000222134
0.000210739
0.000199353
0.000187958
0.000176572
0.000165177
0.00015379
0.000142396
0.000131009
0.000119614
0.000108228
9.68331e-05
8.54462e-05
7.40519e-05
6.26647e-05
5.1271e-05
3.98821e-05
2.84898e-05
1.70857e-05
5.6982e-06
0.00307329
0.0028378
0.00285968
0.00275581
0.00274058
0.00268703
0.00266073
0.00262379
0.00259603
0.00256577
0.00253905
0.0025122
0.00248699
0.00246225
0.00243846
0.00241524
0.00239268
0.00237064
0.00234913
0.00232806
0.00230744
0.0022872
0.00226734
0.00224781
0.00222862
0.00220971
0.00219111
0.00217274
0.00215468
0.00213679
0.0021192
0.00210175
0.00208458
0.00206753
0.00205075
0.00203406
0.00201762
0.00200127
0.00198516
0.00196911
0.00195329
0.00193752
0.00192197
0.00190647
0.00189117
0.00187591
0.00186085
0.00184581
0.00183097
0.00181615
0.0018015
0.00178688
0.00177243
0.00175799
0.00174371
0.00172945
0.00171534
0.00170125
0.00168729
0.00167335
0.00165954
0.00164575
0.00163208
0.00161842
0.00160488
0.00159135
0.00157793
0.00156453
0.00155123
0.00153795
0.00152475
0.00151158
0.00149848
0.00148542
0.00147242
0.00145945
0.00144655
0.00143367
0.00142085
0.00140806
0.00139533
0.00138263
0.00136997
0.00135734
0.00134477
0.00133221
0.00131971
0.00130722
0.00129478
0.00128236
0.00126999
0.00125763
0.00124532
0.00123302
0.00122076
0.00120852
0.00119632
0.00118413
0.00117198
0.00115984
0.00114774
0.00113565
0.00112359
0.00111155
0.00109954
0.00108753
0.00107556
0.0010636
0.00105167
0.00103974
0.00102785
0.00101596
0.0010041
0.000992251
0.000980425
0.000968608
0.000956813
0.000945027
0.000933262
0.000921506
0.000909768
0.000898037
0.000886323
0.000874615
0.000862922
0.000851234
0.00083956
0.000827891
0.000816237
0.000804589
0.000792956
0.000781332
0.000769726
0.000758131
0.000746558
0.000734998
0.000723461
0.00071194
0.000700443
0.000688962
0.000677503
0.000666059
0.000654635
0.000643222
0.000631825
0.000620436
0.000609059
0.000597686
0.000586321
0.000574955
0.000563596
0.000552232
0.000540873
0.000529506
0.000518144
0.000506773
0.000495407
0.000484031
0.00047266
0.000461279
0.000449904
0.000438518
0.000427139
0.00041575
0.000404369
0.000392978
0.000381595
0.000370202
0.000358817
0.000347424
0.000336038
0.000324644
0.000313258
0.000301864
0.000290477
0.000279083
0.000267696
0.000256302
0.000244915
0.000233521
0.000222134
0.000210739
0.000199353
0.000187958
0.000176572
0.000165177
0.00015379
0.000142396
0.000131009
0.000119614
0.000108228
9.68331e-05
8.54462e-05
7.40519e-05
6.26647e-05
5.1271e-05
3.98821e-05
2.84898e-05
1.70859e-05
5.69844e-06
0.00307371
0.00283762
0.00285959
0.00275576
0.00274054
0.00268701
0.00266072
0.00262378
0.00259602
0.00256576
0.00253905
0.00251219
0.00248698
0.00246224
0.00243846
0.00241524
0.00239267
0.00237064
0.00234912
0.00232806
0.00230744
0.00228719
0.00226734
0.0022478
0.00222862
0.0022097
0.00219111
0.00217274
0.00215467
0.00213679
0.00211919
0.00210175
0.00208458
0.00206753
0.00205074
0.00203406
0.00201762
0.00200127
0.00198515
0.0019691
0.00195329
0.00193752
0.00192197
0.00190647
0.00189117
0.00187591
0.00186085
0.00184581
0.00183097
0.00181615
0.0018015
0.00178688
0.00177243
0.00175799
0.00174371
0.00172945
0.00171534
0.00170125
0.00168729
0.00167335
0.00165954
0.00164575
0.00163208
0.00161842
0.00160488
0.00159135
0.00157793
0.00156453
0.00155123
0.00153795
0.00152475
0.00151158
0.00149848
0.00148542
0.00147242
0.00145945
0.00144655
0.00143367
0.00142085
0.00140806
0.00139533
0.00138263
0.00136997
0.00135734
0.00134477
0.00133221
0.00131971
0.00130722
0.00129478
0.00128236
0.00126999
0.00125763
0.00124532
0.00123302
0.00122076
0.00120852
0.00119632
0.00118413
0.00117198
0.00115984
0.00114774
0.00113565
0.00112359
0.00111155
0.00109954
0.00108753
0.00107556
0.0010636
0.00105167
0.00103974
0.00102785
0.00101596
0.0010041
0.000992251
0.000980425
0.000968607
0.000956813
0.000945027
0.000933262
0.000921506
0.000909768
0.000898037
0.000886323
0.000874615
0.000862922
0.000851234
0.00083956
0.000827891
0.000816237
0.000804588
0.000792956
0.000781332
0.000769726
0.000758131
0.000746558
0.000734998
0.000723461
0.00071194
0.000700443
0.000688962
0.000677503
0.000666059
0.000654635
0.000643222
0.000631825
0.000620436
0.000609059
0.000597686
0.000586321
0.000574955
0.000563596
0.000552232
0.000540873
0.000529506
0.000518144
0.000506773
0.000495407
0.000484031
0.00047266
0.000461279
0.000449904
0.000438518
0.00042714
0.00041575
0.000404369
0.000392978
0.000381595
0.000370202
0.000358817
0.000347424
0.000336038
0.000324644
0.000313258
0.000301864
0.000290477
0.000279083
0.000267696
0.000256302
0.000244915
0.000233521
0.000222134
0.000210739
0.000199353
0.000187958
0.000176572
0.000165177
0.00015379
0.000142396
0.000131009
0.000119614
0.000108228
9.68331e-05
8.54462e-05
7.40519e-05
6.26647e-05
5.1271e-05
3.98822e-05
2.84898e-05
1.70863e-05
5.6988e-06
0.00307423
0.00283739
0.00285949
0.0027557
0.0027405
0.00268698
0.0026607
0.00262377
0.002596
0.00256575
0.00253904
0.00251218
0.00248698
0.00246224
0.00243845
0.00241523
0.00239267
0.00237064
0.00234912
0.00232806
0.00230743
0.00228719
0.00226734
0.0022478
0.00222862
0.0022097
0.00219111
0.00217274
0.00215467
0.00213679
0.00211919
0.00210175
0.00208458
0.00206753
0.00205074
0.00203406
0.00201762
0.00200127
0.00198515
0.0019691
0.00195329
0.00193752
0.00192197
0.00190647
0.00189117
0.00187591
0.00186085
0.00184581
0.00183097
0.00181614
0.0018015
0.00178688
0.00177243
0.00175799
0.00174371
0.00172945
0.00171534
0.00170124
0.00168729
0.00167335
0.00165954
0.00164575
0.00163208
0.00161842
0.00160488
0.00159135
0.00157793
0.00156453
0.00155123
0.00153795
0.00152475
0.00151158
0.00149848
0.00148542
0.00147242
0.00145945
0.00144655
0.00143367
0.00142085
0.00140806
0.00139533
0.00138262
0.00136997
0.00135734
0.00134477
0.00133221
0.00131971
0.00130722
0.00129478
0.00128236
0.00126999
0.00125763
0.00124532
0.00123302
0.00122076
0.00120852
0.00119632
0.00118413
0.00117198
0.00115984
0.00114774
0.00113565
0.00112359
0.00111155
0.00109954
0.00108753
0.00107556
0.0010636
0.00105167
0.00103974
0.00102785
0.00101596
0.0010041
0.000992251
0.000980424
0.000968607
0.000956813
0.000945027
0.000933262
0.000921506
0.000909768
0.000898037
0.000886323
0.000874615
0.000862922
0.000851234
0.00083956
0.000827891
0.000816237
0.000804588
0.000792956
0.000781332
0.000769726
0.000758131
0.000746557
0.000734998
0.000723461
0.00071194
0.000700443
0.000688962
0.000677503
0.000666059
0.000654634
0.000643222
0.000631825
0.000620436
0.000609059
0.000597686
0.000586321
0.000574955
0.000563596
0.000552232
0.000540873
0.000529506
0.000518144
0.000506773
0.000495407
0.000484031
0.00047266
0.000461279
0.000449904
0.000438518
0.00042714
0.00041575
0.000404369
0.000392978
0.000381595
0.000370202
0.000358817
0.000347424
0.000336038
0.000324644
0.000313258
0.000301864
0.000290477
0.000279083
0.000267696
0.000256302
0.000244915
0.000233521
0.000222134
0.000210739
0.000199353
0.000187958
0.000176572
0.000165177
0.00015379
0.000142396
0.000131009
0.000119614
0.000108228
9.68331e-05
8.54462e-05
7.40519e-05
6.26647e-05
5.1271e-05
3.98822e-05
2.84899e-05
1.70868e-05
5.69928e-06
0.00307486
0.00283712
0.00285937
0.00275563
0.00274046
0.00268695
0.00266068
0.00262375
0.00259599
0.00256574
0.00253903
0.00251217
0.00248697
0.00246223
0.00243844
0.00241522
0.00239266
0.00237063
0.00234911
0.00232805
0.00230743
0.00228719
0.00226733
0.0022478
0.00222861
0.0022097
0.00219111
0.00217274
0.00215467
0.00213679
0.00211919
0.00210175
0.00208457
0.00206753
0.00205074
0.00203405
0.00201762
0.00200127
0.00198515
0.0019691
0.00195328
0.00193752
0.00192197
0.00190646
0.00189117
0.00187591
0.00186085
0.00184581
0.00183097
0.00181614
0.0018015
0.00178688
0.00177243
0.00175799
0.00174371
0.00172945
0.00171534
0.00170124
0.00168729
0.00167335
0.00165954
0.00164575
0.00163207
0.00161842
0.00160488
0.00159135
0.00157793
0.00156453
0.00155123
0.00153795
0.00152475
0.00151158
0.00149848
0.00148541
0.00147242
0.00145945
0.00144655
0.00143367
0.00142085
0.00140806
0.00139533
0.00138262
0.00136997
0.00135734
0.00134477
0.00133221
0.00131971
0.00130722
0.00129478
0.00128236
0.00126999
0.00125763
0.00124532
0.00123302
0.00122076
0.00120852
0.00119632
0.00118413
0.00117198
0.00115984
0.00114774
0.00113565
0.00112359
0.00111155
0.00109954
0.00108753
0.00107556
0.0010636
0.00105167
0.00103974
0.00102785
0.00101596
0.0010041
0.000992251
0.000980424
0.000968607
0.000956813
0.000945027
0.000933262
0.000921506
0.000909768
0.000898037
0.000886323
0.000874615
0.000862922
0.000851234
0.00083956
0.000827891
0.000816237
0.000804588
0.000792956
0.000781332
0.000769726
0.000758131
0.000746557
0.000734998
0.000723461
0.00071194
0.000700443
0.000688961
0.000677503
0.000666058
0.000654634
0.000643221
0.000631825
0.000620436
0.000609059
0.000597686
0.000586321
0.000574955
0.000563596
0.000552232
0.000540873
0.000529506
0.000518144
0.000506773
0.000495407
0.000484031
0.00047266
0.000461279
0.000449904
0.000438518
0.00042714
0.00041575
0.000404369
0.000392978
0.000381595
0.000370202
0.000358817
0.000347424
0.000336038
0.000324644
0.000313258
0.000301864
0.000290477
0.000279083
0.000267696
0.000256302
0.000244915
0.000233521
0.000222134
0.000210739
0.000199353
0.000187958
0.000176572
0.000165177
0.00015379
0.000142396
0.000131009
0.000119614
0.000108228
9.68331e-05
8.54462e-05
7.40519e-05
6.26647e-05
5.1271e-05
3.98822e-05
2.84899e-05
1.70873e-05
5.69985e-06
0.0030756
0.0028368
0.00285922
0.00275555
0.0027404
0.00268692
0.00266065
0.00262373
0.00259597
0.00256573
0.00253902
0.00251216
0.00248696
0.00246222
0.00243844
0.00241522
0.00239266
0.00237062
0.00234911
0.00232805
0.00230742
0.00228718
0.00226733
0.00224779
0.00222861
0.00220969
0.0021911
0.00217273
0.00215467
0.00213678
0.00211919
0.00210174
0.00208457
0.00206752
0.00205074
0.00203405
0.00201762
0.00200126
0.00198515
0.0019691
0.00195328
0.00193751
0.00192197
0.00190646
0.00189117
0.00187591
0.00186084
0.00184581
0.00183097
0.00181614
0.0018015
0.00178688
0.00177242
0.00175799
0.00174371
0.00172945
0.00171534
0.00170124
0.00168729
0.00167335
0.00165954
0.00164575
0.00163207
0.00161842
0.00160488
0.00159135
0.00157793
0.00156453
0.00155123
0.00153794
0.00152475
0.00151158
0.00149848
0.00148541
0.00147242
0.00145945
0.00144655
0.00143367
0.00142085
0.00140806
0.00139533
0.00138262
0.00136997
0.00135734
0.00134477
0.00133221
0.00131971
0.00130722
0.00129478
0.00128236
0.00126999
0.00125763
0.00124532
0.00123302
0.00122076
0.00120852
0.00119632
0.00118413
0.00117198
0.00115984
0.00114774
0.00113565
0.00112359
0.00111155
0.00109954
0.00108753
0.00107556
0.0010636
0.00105167
0.00103974
0.00102785
0.00101596
0.0010041
0.000992251
0.000980424
0.000968607
0.000956813
0.000945027
0.000933262
0.000921506
0.000909768
0.000898037
0.000886323
0.000874615
0.000862922
0.000851234
0.00083956
0.000827891
0.000816237
0.000804588
0.000792956
0.000781331
0.000769725
0.000758131
0.000746557
0.000734997
0.000723461
0.00071194
0.000700442
0.000688961
0.000677503
0.000666058
0.000654634
0.000643221
0.000631825
0.000620436
0.000609059
0.000597685
0.000586321
0.000574955
0.000563596
0.000552232
0.000540873
0.000529506
0.000518144
0.000506773
0.000495407
0.000484031
0.00047266
0.000461279
0.000449904
0.000438518
0.00042714
0.00041575
0.000404369
0.000392978
0.000381595
0.000370202
0.000358817
0.000347424
0.000336038
0.000324644
0.000313258
0.000301864
0.000290477
0.000279083
0.000267696
0.000256302
0.000244915
0.000233521
0.000222134
0.000210739
0.000199353
0.000187958
0.000176572
0.000165177
0.00015379
0.000142396
0.000131009
0.000119614
0.000108228
9.68331e-05
8.54462e-05
7.40519e-05
6.26647e-05
5.1271e-05
3.98822e-05
2.84899e-05
1.7088e-05
5.70052e-06
0.00307644
0.00283644
0.00285906
0.00275545
0.00274033
0.00268688
0.00266062
0.00262371
0.00259596
0.00256571
0.002539
0.00251215
0.00248695
0.00246221
0.00243843
0.00241521
0.00239265
0.00237062
0.0023491
0.00232804
0.00230742
0.00228718
0.00226732
0.00224779
0.00222861
0.00220969
0.0021911
0.00217273
0.00215466
0.00213678
0.00211919
0.00210174
0.00208457
0.00206752
0.00205074
0.00203405
0.00201762
0.00200126
0.00198515
0.0019691
0.00195328
0.00193751
0.00192197
0.00190646
0.00189117
0.0018759
0.00186084
0.00184581
0.00183096
0.00181614
0.0018015
0.00178688
0.00177242
0.00175799
0.00174371
0.00172945
0.00171534
0.00170124
0.00168729
0.00167335
0.00165954
0.00164574
0.00163207
0.00161842
0.00160488
0.00159135
0.00157793
0.00156453
0.00155123
0.00153794
0.00152475
0.00151158
0.00149848
0.00148541
0.00147242
0.00145945
0.00144654
0.00143367
0.00142085
0.00140806
0.00139533
0.00138262
0.00136997
0.00135734
0.00134477
0.00133221
0.00131971
0.00130722
0.00129478
0.00128236
0.00126999
0.00125763
0.00124532
0.00123302
0.00122076
0.00120852
0.00119632
0.00118413
0.00117198
0.00115984
0.00114774
0.00113565
0.00112359
0.00111155
0.00109954
0.00108753
0.00107556
0.0010636
0.00105167
0.00103974
0.00102785
0.00101596
0.0010041
0.000992251
0.000980424
0.000968607
0.000956812
0.000945027
0.000933262
0.000921506
0.000909768
0.000898037
0.000886323
0.000874615
0.000862922
0.000851234
0.00083956
0.000827891
0.000816236
0.000804588
0.000792955
0.000781331
0.000769725
0.000758131
0.000746557
0.000734997
0.00072346
0.00071194
0.000700442
0.000688961
0.000677502
0.000666058
0.000654634
0.000643221
0.000631825
0.000620436
0.000609059
0.000597685
0.000586321
0.000574955
0.000563596
0.000552232
0.000540873
0.000529506
0.000518144
0.000506773
0.000495407
0.000484031
0.00047266
0.000461279
0.000449904
0.000438518
0.00042714
0.00041575
0.000404369
0.000392978
0.000381595
0.000370202
0.000358817
0.000347424
0.000336038
0.000324644
0.000313258
0.000301864
0.000290477
0.000279083
0.000267696
0.000256302
0.000244915
0.000233521
0.000222134
0.000210739
0.000199353
0.000187958
0.000176572
0.000165177
0.00015379
0.000142396
0.000131009
0.000119614
0.000108228
9.68331e-05
8.54462e-05
7.40519e-05
6.26647e-05
5.1271e-05
3.98823e-05
2.849e-05
1.70887e-05
5.70127e-06
0.00307738
0.00283602
0.00285887
0.00275534
0.00274026
0.00268684
0.00266059
0.00262368
0.00259593
0.00256569
0.00253899
0.00251214
0.00248694
0.0024622
0.00243842
0.0024152
0.00239264
0.00237061
0.0023491
0.00232804
0.00230741
0.00228717
0.00226732
0.00224779
0.0022286
0.00220969
0.0021911
0.00217273
0.00215466
0.00213678
0.00211918
0.00210174
0.00208457
0.00206752
0.00205073
0.00203405
0.00201761
0.00200126
0.00198515
0.0019691
0.00195328
0.00193751
0.00192197
0.00190646
0.00189117
0.0018759
0.00186084
0.00184581
0.00183096
0.00181614
0.0018015
0.00178688
0.00177242
0.00175799
0.00174371
0.00172945
0.00171534
0.00170124
0.00168729
0.00167335
0.00165954
0.00164574
0.00163207
0.00161842
0.00160488
0.00159135
0.00157793
0.00156453
0.00155123
0.00153794
0.00152475
0.00151158
0.00149848
0.00148541
0.00147242
0.00145945
0.00144654
0.00143367
0.00142085
0.00140806
0.00139533
0.00138262
0.00136997
0.00135734
0.00134477
0.00133221
0.0013197
0.00130722
0.00129478
0.00128236
0.00126999
0.00125763
0.00124532
0.00123302
0.00122076
0.00120852
0.00119632
0.00118413
0.00117198
0.00115984
0.00114774
0.00113565
0.00112359
0.00111155
0.00109954
0.00108753
0.00107556
0.0010636
0.00105167
0.00103974
0.00102785
0.00101596
0.0010041
0.000992251
0.000980424
0.000968607
0.000956812
0.000945027
0.000933262
0.000921506
0.000909768
0.000898037
0.000886323
0.000874615
0.000862922
0.000851234
0.00083956
0.000827891
0.000816236
0.000804588
0.000792955
0.000781331
0.000769725
0.000758131
0.000746557
0.000734997
0.00072346
0.000711939
0.000700442
0.000688961
0.000677502
0.000666058
0.000654634
0.000643221
0.000631825
0.000620436
0.000609059
0.000597685
0.000586321
0.000574955
0.000563596
0.000552232
0.000540873
0.000529506
0.000518145
0.000506773
0.000495407
0.000484031
0.00047266
0.000461279
0.000449904
0.000438518
0.00042714
0.00041575
0.000404369
0.000392978
0.000381595
0.000370202
0.000358817
0.000347424
0.000336038
0.000324644
0.000313258
0.000301864
0.000290477
0.000279083
0.000267696
0.000256302
0.000244915
0.000233521
0.000222134
0.000210739
0.000199353
0.000187958
0.000176572
0.000165177
0.00015379
0.000142396
0.000131009
0.000119614
0.000108228
9.6833e-05
8.54462e-05
7.40519e-05
6.26647e-05
5.1271e-05
3.98823e-05
2.849e-05
1.70895e-05
5.70209e-06
0.00307843
0.00283556
0.00285866
0.00275521
0.00274018
0.00268679
0.00266055
0.00262366
0.00259591
0.00256567
0.00253897
0.00251212
0.00248692
0.00246219
0.00243841
0.00241519
0.00239263
0.0023706
0.00234909
0.00232803
0.00230741
0.00228717
0.00226731
0.00224778
0.0022286
0.00220968
0.00219109
0.00217272
0.00215466
0.00213677
0.00211918
0.00210173
0.00208456
0.00206752
0.00205073
0.00203405
0.00201761
0.00200126
0.00198514
0.00196909
0.00195328
0.00193751
0.00192196
0.00190646
0.00189116
0.0018759
0.00186084
0.00184581
0.00183096
0.00181614
0.0018015
0.00178687
0.00177242
0.00175798
0.00174371
0.00172945
0.00171534
0.00170124
0.00168729
0.00167335
0.00165954
0.00164574
0.00163207
0.00161842
0.00160488
0.00159135
0.00157793
0.00156453
0.00155123
0.00153794
0.00152475
0.00151157
0.00149848
0.00148541
0.00147242
0.00145945
0.00144654
0.00143367
0.00142085
0.00140806
0.00139533
0.00138262
0.00136997
0.00135734
0.00134477
0.00133221
0.0013197
0.00130722
0.00129478
0.00128236
0.00126999
0.00125763
0.00124532
0.00123302
0.00122076
0.00120852
0.00119632
0.00118413
0.00117198
0.00115984
0.00114774
0.00113565
0.00112359
0.00111155
0.00109954
0.00108753
0.00107556
0.0010636
0.00105167
0.00103974
0.00102785
0.00101596
0.0010041
0.00099225
0.000980424
0.000968607
0.000956812
0.000945027
0.000933262
0.000921505
0.000909767
0.000898037
0.000886323
0.000874615
0.000862922
0.000851234
0.00083956
0.000827891
0.000816236
0.000804588
0.000792955
0.000781331
0.000769725
0.00075813
0.000746557
0.000734997
0.00072346
0.000711939
0.000700442
0.000688961
0.000677502
0.000666058
0.000654634
0.000643221
0.000631825
0.000620435
0.000609059
0.000597685
0.000586321
0.000574955
0.000563596
0.000552232
0.000540873
0.000529506
0.000518145
0.000506773
0.000495407
0.000484031
0.00047266
0.000461279
0.000449904
0.000438518
0.00042714
0.00041575
0.000404369
0.000392978
0.000381595
0.000370202
0.000358817
0.000347424
0.000336038
0.000324644
0.000313258
0.000301864
0.000290477
0.000279083
0.000267696
0.000256302
0.000244915
0.000233521
0.000222134
0.000210739
0.000199353
0.000187958
0.000176572
0.000165177
0.00015379
0.000142396
0.000131009
0.000119614
0.000108228
9.6833e-05
8.54462e-05
7.40519e-05
6.26647e-05
5.1271e-05
3.98824e-05
2.849e-05
1.70904e-05
5.70295e-06
0.00307959
0.00283505
0.00285843
0.00275508
0.00274009
0.00268673
0.00266051
0.00262363
0.00259589
0.00256565
0.00253895
0.00251211
0.00248691
0.00246218
0.0024384
0.00241518
0.00239262
0.00237059
0.00234908
0.00232802
0.0023074
0.00228716
0.00226731
0.00224777
0.00222859
0.00220968
0.00219109
0.00217272
0.00215465
0.00213677
0.00211918
0.00210173
0.00208456
0.00206751
0.00205073
0.00203404
0.00201761
0.00200125
0.00198514
0.00196909
0.00195327
0.00193751
0.00192196
0.00190646
0.00189116
0.0018759
0.00186084
0.0018458
0.00183096
0.00181614
0.0018015
0.00178687
0.00177242
0.00175798
0.00174371
0.00172945
0.00171534
0.00170124
0.00168728
0.00167334
0.00165954
0.00164574
0.00163207
0.00161842
0.00160487
0.00159135
0.00157793
0.00156453
0.00155123
0.00153794
0.00152475
0.00151157
0.00149848
0.00148541
0.00147242
0.00145945
0.00144654
0.00143367
0.00142085
0.00140806
0.00139533
0.00138262
0.00136997
0.00135734
0.00134477
0.00133221
0.0013197
0.00130722
0.00129478
0.00128236
0.00126999
0.00125763
0.00124532
0.00123302
0.00122076
0.00120852
0.00119632
0.00118413
0.00117198
0.00115984
0.00114774
0.00113565
0.00112359
0.00111155
0.00109953
0.00108753
0.00107556
0.0010636
0.00105167
0.00103974
0.00102785
0.00101596
0.0010041
0.00099225
0.000980424
0.000968607
0.000956812
0.000945027
0.000933262
0.000921505
0.000909767
0.000898037
0.000886323
0.000874615
0.000862922
0.000851234
0.00083956
0.000827891
0.000816236
0.000804588
0.000792955
0.000781331
0.000769725
0.00075813
0.000746556
0.000734997
0.00072346
0.000711939
0.000700442
0.00068896
0.000677502
0.000666058
0.000654634
0.000643221
0.000631824
0.000620435
0.000609059
0.000597685
0.000586321
0.000574955
0.000563596
0.000552232
0.000540873
0.000529506
0.000518145
0.000506773
0.000495408
0.000484031
0.00047266
0.000461279
0.000449904
0.000438518
0.00042714
0.00041575
0.000404369
0.000392978
0.000381595
0.000370202
0.000358817
0.000347424
0.000336038
0.000324644
0.000313258
0.000301864
0.000290477
0.000279083
0.000267696
0.000256302
0.000244915
0.000233521
0.000222134
0.000210739
0.000199353
0.000187958
0.000176572
0.000165177
0.00015379
0.000142396
0.000131009
0.000119614
0.000108228
9.6833e-05
8.54462e-05
7.40519e-05
6.26647e-05
5.1271e-05
3.98824e-05
2.84901e-05
1.70913e-05
5.70385e-06
0.00308086
0.0028345
0.00285818
0.00275493
0.00274
0.00268668
0.00266047
0.00262359
0.00259586
0.00256563
0.00253893
0.00251209
0.00248689
0.00246216
0.00243838
0.00241517
0.00239261
0.00237058
0.00234907
0.00232801
0.00230739
0.00228715
0.0022673
0.00224777
0.00222859
0.00220967
0.00219108
0.00217271
0.00215465
0.00213677
0.00211917
0.00210173
0.00208456
0.00206751
0.00205073
0.00203404
0.00201761
0.00200125
0.00198514
0.00196909
0.00195327
0.00193751
0.00192196
0.00190645
0.00189116
0.0018759
0.00186084
0.0018458
0.00183096
0.00181614
0.00180149
0.00178687
0.00177242
0.00175798
0.00174371
0.00172944
0.00171533
0.00170124
0.00168728
0.00167334
0.00165954
0.00164574
0.00163207
0.00161842
0.00160487
0.00159135
0.00157793
0.00156453
0.00155122
0.00153794
0.00152475
0.00151157
0.00149848
0.00148541
0.00147242
0.00145945
0.00144654
0.00143367
0.00142085
0.00140806
0.00139533
0.00138262
0.00136997
0.00135734
0.00134476
0.00133221
0.0013197
0.00130722
0.00129478
0.00128236
0.00126999
0.00125763
0.00124532
0.00123302
0.00122076
0.00120852
0.00119632
0.00118413
0.00117198
0.00115984
0.00114774
0.00113565
0.00112359
0.00111155
0.00109953
0.00108753
0.00107556
0.0010636
0.00105167
0.00103974
0.00102785
0.00101596
0.0010041
0.00099225
0.000980423
0.000968606
0.000956812
0.000945026
0.000933262
0.000921505
0.000909767
0.000898037
0.000886323
0.000874615
0.000862921
0.000851233
0.00083956
0.000827891
0.000816236
0.000804588
0.000792955
0.000781331
0.000769725
0.00075813
0.000746556
0.000734997
0.00072346
0.000711939
0.000700441
0.00068896
0.000677502
0.000666057
0.000654633
0.000643221
0.000631824
0.000620435
0.000609059
0.000597685
0.000586321
0.000574955
0.000563596
0.000552232
0.000540873
0.000529506
0.000518145
0.000506773
0.000495408
0.000484031
0.00047266
0.000461279
0.000449904
0.000438518
0.00042714
0.00041575
0.000404369