/*--------------------------------*- C++ -*----------------------------------*\
| =========                 |                                                 |
| \\      /  F ield         | OpenFOAM: The Open Source CFD Toolbox           |
|  \\    /   O peration     | Version:  2412                                  |
|   \\  /    A nd           | Website:  www.openfoam.com                      |
|    \\/     M anipulation  |                                                 |
\*---------------------------------------------------------------------------*/
FoamFile
{
    version     2.0;
    format      ascii;
    arch        "LSB;label=32;scalar=64";
    class       surfaceScalarField;
    location    "600";
    object      phi;
}
// * * * * * * * * * * * * * * * * * * * * * * * * * * * * * * * * * * * * * //

dimensions      [0 3 -1 0 0 0 0];

oriented        oriented;

internalField   nonuniform List<scalar> 
15760
(
1.31109e-08
-6.10902e-10
1.35269e-08
-4.16007e-10
1.37776e-08
-2.50688e-10
1.40114e-08
-2.33835e-10
1.41853e-08
-1.73912e-10
1.43505e-08
-1.65154e-10
1.44948e-08
-1.44335e-10
1.46315e-08
-1.36625e-10
1.4758e-08
-1.26521e-10
1.48782e-08
-1.2021e-10
1.49921e-08
-1.13937e-10
1.5101e-08
-1.08924e-10
1.52055e-08
-1.04438e-10
1.53059e-08
-1.00409e-10
1.54028e-08
-9.69188e-11
1.54964e-08
-9.35882e-11
1.55871e-08
-9.07096e-11
1.5675e-08
-8.78652e-11
1.57604e-08
-8.53813e-11
1.58432e-08
-8.28767e-11
1.59239e-08
-8.06541e-11
1.60023e-08
-7.83918e-11
1.60786e-08
-7.63463e-11
1.61529e-08
-7.42633e-11
1.62252e-08
-7.23421e-11
1.62956e-08
-7.03989e-11
1.63642e-08
-6.85698e-11
1.64309e-08
-6.6742e-11
1.64959e-08
-6.49862e-11
1.65592e-08
-6.32593e-11
1.66208e-08
-6.15663e-11
1.66807e-08
-5.99319e-11
1.6739e-08
-5.82965e-11
1.67957e-08
-5.67494e-11
1.68509e-08
-5.51694e-11
1.69046e-08
-5.37062e-11
1.69568e-08
-5.2181e-11
1.70076e-08
-5.0799e-11
1.70569e-08
-4.93288e-11
1.71049e-08
-4.80254e-11
1.71516e-08
-4.66107e-11
1.71969e-08
-4.53833e-11
1.7241e-08
-4.40246e-11
1.72838e-08
-4.287e-11
1.73254e-08
-4.15679e-11
1.73659e-08
-4.04826e-11
1.74051e-08
-3.92373e-11
1.74433e-08
-3.82175e-11
1.74804e-08
-3.70294e-11
1.75164e-08
-3.60709e-11
1.75514e-08
-3.49399e-11
1.75854e-08
-3.40384e-11
1.76184e-08
-3.29643e-11
1.76505e-08
-3.21157e-11
1.76816e-08
-3.10978e-11
1.77119e-08
-3.02983e-11
1.77412e-08
-2.93352e-11
1.77698e-08
-2.85819e-11
1.77975e-08
-2.76713e-11
1.78244e-08
-2.69618e-11
1.78505e-08
-2.61009e-11
1.7876e-08
-2.54337e-11
1.79006e-08
-2.4619e-11
1.79246e-08
-2.39927e-11
1.79478e-08
-2.32212e-11
1.79704e-08
-2.2634e-11
1.79923e-08
-2.19033e-11
1.80137e-08
-2.13527e-11
1.80344e-08
-2.06614e-11
1.80545e-08
-2.0144e-11
1.8074e-08
-1.94916e-11
1.8093e-08
-1.90035e-11
1.81114e-08
-1.83903e-11
1.81293e-08
-1.79273e-11
1.81467e-08
-1.73533e-11
1.81636e-08
-1.6912e-11
1.818e-08
-1.63764e-11
1.81959e-08
-1.59545e-11
1.82114e-08
-1.54558e-11
1.82264e-08
-1.50523e-11
1.8241e-08
-1.45876e-11
1.82552e-08
-1.42026e-11
1.8269e-08
-1.37683e-11
1.82824e-08
-1.34024e-11
1.82954e-08
-1.29951e-11
1.8308e-08
-1.26487e-11
1.83203e-08
-1.22652e-11
1.83322e-08
-1.19386e-11
1.83438e-08
-1.15767e-11
1.83551e-08
-1.12697e-11
1.8366e-08
-1.09277e-11
1.83766e-08
-1.06392e-11
1.8387e-08
-1.03159e-11
1.8397e-08
-1.00443e-11
1.84067e-08
-9.73859e-12
1.84162e-08
-9.48227e-12
1.84254e-08
-9.1934e-12
1.84344e-08
-8.95143e-12
1.84431e-08
-8.67909e-12
1.84515e-08
-8.45129e-12
1.84597e-08
-8.19515e-12
1.84677e-08
-7.98142e-12
1.84754e-08
-7.74062e-12
1.8483e-08
-7.5401e-12
1.84903e-08
-7.31291e-12
1.84974e-08
-7.12375e-12
1.85043e-08
-6.90786e-12
1.8511e-08
-6.72777e-12
1.85176e-08
-6.52113e-12
1.85239e-08
-6.34838e-12
1.85301e-08
-6.15008e-12
1.8536e-08
-5.98443e-12
1.85418e-08
-5.7954e-12
1.85475e-08
-5.63861e-12
1.85529e-08
-5.4619e-12
1.85582e-08
-5.31748e-12
1.85634e-08
-5.15779e-12
1.85684e-08
-5.03012e-12
1.85733e-08
-4.89213e-12
1.85781e-08
-4.78436e-12
1.85828e-08
-4.66991e-12
1.85874e-08
-4.58105e-12
1.85918e-08
-4.48587e-12
1.85963e-08
-4.40797e-12
1.86006e-08
-4.31965e-12
1.86048e-08
-4.237e-12
1.8609e-08
-4.13601e-12
1.8613e-08
-4.02764e-12
1.86169e-08
-3.89195e-12
1.86206e-08
-3.73757e-12
1.86242e-08
-3.54984e-12
1.86275e-08
-3.3372e-12
1.86306e-08
-3.09164e-12
1.86334e-08
-2.82226e-12
1.86359e-08
-2.52815e-12
1.86382e-08
-2.21869e-12
1.86401e-08
-1.89892e-12
1.86416e-08
-1.57738e-12
1.86429e-08
-1.26241e-12
1.86439e-08
-9.60485e-13
1.86445e-08
-6.80337e-13
1.8645e-08
-4.25163e-13
1.86452e-08
-2.02338e-13
1.86452e-08
-1.03967e-14
1.8645e-08
1.44167e-13
1.86448e-08
2.69024e-13
1.86444e-08
3.56271e-13
1.8644e-08
4.21058e-13
1.86435e-08
4.51175e-13
1.86431e-08
4.69675e-13
1.86426e-08
4.57926e-13
1.86422e-08
4.46168e-13
1.86417e-08
4.08772e-13
1.86414e-08
3.814e-13
1.8641e-08
3.32467e-13
1.86407e-08
3.00625e-13
1.86405e-08
2.50606e-13
1.86403e-08
2.21269e-13
1.86401e-08
1.7667e-13
1.86399e-08
1.53206e-13
1.86398e-08
1.16985e-13
1.86397e-08
1.00297e-13
1.86396e-08
7.27582e-14
1.86396e-08
6.238e-14
1.86395e-08
4.23159e-14
1.86395e-08
3.70094e-14
1.86395e-08
2.28342e-14
1.86395e-08
2.09671e-14
1.86394e-08
1.12711e-14
1.86394e-08
1.14143e-14
1.86394e-08
4.72648e-15
1.86394e-08
6.35899e-15
1.86394e-08
8.96028e-16
1.86394e-08
4.23952e-15
1.86394e-08
-1.43629e-15
1.86394e-08
3.57332e-15
1.86394e-08
-2.62569e-15
1.86394e-08
3.26492e-15
1.86394e-08
-2.98472e-15
1.86394e-08
3.0175e-15
1.86394e-08
-2.97561e-15
1.86394e-08
2.84059e-15
1.86394e-08
-2.83978e-15
1.86394e-08
2.64273e-15
1.86394e-08
-2.58243e-15
1.86394e-08
2.33068e-15
1.86394e-08
-2.0942e-15
1.86394e-08
1.62497e-15
1.86394e-08
-1.07286e-15
1.86394e-08
3.05067e-16
1.86394e-08
6.44986e-16
1.86394e-08
-1.96533e-15
1.86394e-08
3.87956e-15
1.86394e-08
-6.79184e-15
1.86394e-08
1.11405e-14
1.86394e-08
-1.96348e-14
1.86394e-08
3.17701e-14
1.86395e-08
-8.84483e-14
1.86394e-08
1.23147e-13
-3.52136e-13
1.31373e-08
-1.24818e-09
1.35107e-08
-7.894e-10
1.37873e-08
-5.27272e-10
1.40065e-08
-4.53117e-10
1.41886e-08
-3.56015e-10
1.43495e-08
-3.25969e-10
1.44962e-08
-2.91091e-10
1.46315e-08
-2.71954e-10
1.47588e-08
-2.53779e-10
1.48786e-08
-2.40033e-10
1.49928e-08
-2.28104e-10
1.51016e-08
-2.17735e-10
1.52061e-08
-2.0894e-10
1.53065e-08
-2.00777e-10
1.54034e-08
-1.93833e-10
1.54969e-08
-1.87134e-10
1.55876e-08
-1.81368e-10
1.56754e-08
-1.75657e-10
1.57607e-08
-1.70666e-10
1.58434e-08
-1.65635e-10
1.59239e-08
-1.61163e-10
1.60021e-08
-1.56615e-10
1.60783e-08
-1.525e-10
1.61523e-08
-1.48308e-10
1.62245e-08
-1.44447e-10
1.62946e-08
-1.40532e-10
1.63629e-08
-1.36862e-10
1.64293e-08
-1.33178e-10
1.6494e-08
-1.29661e-10
1.65569e-08
-1.26179e-10
1.66181e-08
-1.22795e-10
1.66777e-08
-1.19498e-10
1.67356e-08
-1.16235e-10
1.6792e-08
-1.13114e-10
1.68468e-08
-1.09967e-10
1.69001e-08
-1.07015e-10
1.69519e-08
-1.03982e-10
1.70023e-08
-1.01193e-10
1.70513e-08
-9.82746e-11
1.70989e-08
-9.56443e-11
1.71451e-08
-9.28395e-11
1.71901e-08
-9.0362e-11
1.72337e-08
-8.76716e-11
1.72762e-08
-8.53409e-11
1.73174e-08
-8.27652e-11
1.73575e-08
-8.05742e-11
1.73964e-08
-7.81132e-11
1.74342e-08
-7.60543e-11
1.74709e-08
-7.3708e-11
1.75066e-08
-7.17727e-11
1.75412e-08
-6.95408e-11
1.75749e-08
-6.77206e-11
1.76075e-08
-6.56022e-11
1.76393e-08
-6.38889e-11
1.76701e-08
-6.18822e-11
1.77e-08
-6.02684e-11
1.77291e-08
-5.83701e-11
1.77573e-08
-5.685e-11
1.77847e-08
-5.50554e-11
1.78114e-08
-5.36245e-11
1.78372e-08
-5.19276e-11
1.78624e-08
-5.05826e-11
1.78867e-08
-4.89767e-11
1.79104e-08
-4.77149e-11
1.79334e-08
-4.61936e-11
1.79558e-08
-4.50113e-11
1.79775e-08
-4.35699e-11
1.79986e-08
-4.24621e-11
1.8019e-08
-4.10978e-11
1.80389e-08
-4.00576e-11
1.80582e-08
-3.87697e-11
1.8077e-08
-3.7789e-11
1.80952e-08
-3.6578e-11
1.81129e-08
-3.56484e-11
1.813e-08
-3.45146e-11
1.81468e-08
-3.3629e-11
1.8163e-08
-3.25711e-11
1.81787e-08
-3.17249e-11
1.8194e-08
-3.07394e-11
1.82089e-08
-2.99306e-11
1.82233e-08
-2.90122e-11
1.82374e-08
-2.82407e-11
1.8251e-08
-2.73827e-11
1.82642e-08
-2.66494e-11
1.82771e-08
-2.58446e-11
1.82896e-08
-2.51506e-11
1.83017e-08
-2.43929e-11
1.83135e-08
-2.37386e-11
1.83249e-08
-2.30236e-11
1.83361e-08
-2.24083e-11
1.83469e-08
-2.17329e-11
1.83574e-08
-2.11546e-11
1.83676e-08
-2.05162e-11
1.83775e-08
-1.99716e-11
1.83872e-08
-1.93682e-11
1.83965e-08
-1.88541e-11
1.84056e-08
-1.8284e-11
1.84145e-08
-1.77986e-11
1.8423e-08
-1.72611e-11
1.84314e-08
-1.6804e-11
1.84395e-08
-1.62984e-11
1.84474e-08
-1.58694e-11
1.8455e-08
-1.53941e-11
1.84625e-08
-1.49918e-11
1.84697e-08
-1.45434e-11
1.84768e-08
-1.41642e-11
1.84836e-08
-1.37383e-11
1.84902e-08
-1.33776e-11
1.84967e-08
-1.29701e-11
1.8503e-08
-1.26243e-11
1.85091e-08
-1.2233e-11
1.8515e-08
-1.19014e-11
1.85207e-08
-1.1528e-11
1.85263e-08
-1.12137e-11
1.85317e-08
-1.08639e-11
1.85369e-08
-1.05736e-11
1.8542e-08
-1.02566e-11
1.8547e-08
-9.99885e-12
1.85518e-08
-9.7241e-12
1.85566e-08
-9.50562e-12
1.85612e-08
-9.27746e-12
1.85657e-08
-9.09717e-12
1.85701e-08
-8.90828e-12
1.85744e-08
-8.75172e-12
1.85787e-08
-8.57882e-12
1.85829e-08
-8.41603e-12
1.8587e-08
-8.22137e-12
1.8591e-08
-8.0113e-12
1.85948e-08
-7.75131e-12
1.85985e-08
-7.45315e-12
1.86021e-08
-7.0923e-12
1.86054e-08
-6.68004e-12
1.86085e-08
-6.20467e-12
1.86114e-08
-5.6789e-12
1.8614e-08
-5.10493e-12
1.86162e-08
-4.49633e-12
1.86182e-08
-3.86708e-12
1.86199e-08
-3.22965e-12
1.86212e-08
-2.60464e-12
1.86222e-08
-2.00101e-12
1.8623e-08
-1.44024e-12
1.86235e-08
-9.25186e-13
1.86238e-08
-4.74825e-13
1.86238e-08
-8.27859e-14
1.86238e-08
2.33446e-13
1.86235e-08
4.92891e-13
1.86232e-08
6.74965e-13
1.86228e-08
8.14131e-13
1.86224e-08
8.80906e-13
1.86219e-08
9.26168e-13
1.86215e-08
9.07295e-13
1.8621e-08
8.90162e-13
1.86206e-08
8.17815e-13
1.86202e-08
7.67576e-13
1.86199e-08
6.70176e-13
1.86196e-08
6.09462e-13
1.86193e-08
5.08377e-13
1.86191e-08
4.5164e-13
1.86189e-08
3.60386e-13
1.86188e-08
3.14846e-13
1.86186e-08
2.39779e-13
1.86185e-08
2.07639e-13
1.86185e-08
1.497e-13
1.86184e-08
1.30258e-13
1.86183e-08
8.72626e-14
1.86183e-08
7.81152e-14
1.86183e-08
4.70392e-14
1.86183e-08
4.49197e-14
1.86182e-08
2.29756e-14
1.86182e-08
2.50545e-14
1.86182e-08
9.22148e-15
1.86182e-08
1.44765e-14
1.86182e-08
1.12745e-15
1.86182e-08
9.9532e-15
1.86182e-08
-3.76085e-15
1.86182e-08
8.41977e-15
1.86182e-08
-6.23477e-15
1.86182e-08
7.69047e-15
1.86182e-08
-7.01393e-15
1.86182e-08
7.17004e-15
1.86182e-08
-7.0606e-15
1.86182e-08
6.83527e-15
1.86182e-08
-6.84875e-15
1.86182e-08
6.49754e-15
1.86182e-08
-6.41585e-15
1.86182e-08
5.95143e-15
1.86182e-08
-5.52848e-15
1.86182e-08
4.64848e-15
1.86182e-08
-3.6367e-15
1.86182e-08
2.23878e-15
1.86182e-08
-5.16765e-16
1.86182e-08
-1.87718e-15
1.86182e-08
5.31508e-15
1.86182e-08
-1.04849e-14
1.86182e-08
1.79946e-14
1.86182e-08
-3.24538e-14
1.86182e-08
5.06169e-14
1.86183e-08
-1.4106e-13
1.86183e-08
9.52323e-14
-9.13709e-13
1.31379e-08
-1.88603e-09
1.35117e-08
-1.16326e-09
1.37883e-08
-8.03857e-10
1.40076e-08
-6.72409e-10
1.41897e-08
-5.38133e-10
1.43505e-08
-4.86801e-10
1.44973e-08
-4.3786e-10
1.46327e-08
-4.07302e-10
1.47599e-08
-3.81051e-10
1.48798e-08
-3.59877e-10
1.4994e-08
-3.42281e-10
1.51028e-08
-3.26557e-10
1.52073e-08
-3.13434e-10
1.53076e-08
-3.01125e-10
1.54045e-08
-2.90695e-10
1.5498e-08
-2.80603e-10
1.55885e-08
-2.71905e-10
1.56761e-08
-2.63293e-10
1.57612e-08
-2.55742e-10
1.58437e-08
-2.48145e-10
1.59239e-08
-2.41368e-10
1.60018e-08
-2.34491e-10
1.60775e-08
-2.28251e-10
1.61511e-08
-2.21909e-10
1.62228e-08
-2.16056e-10
1.62924e-08
-2.10134e-10
1.63601e-08
-2.04577e-10
1.64259e-08
-1.99006e-10
1.64899e-08
-1.9369e-10
1.65522e-08
-1.88429e-10
1.66127e-08
-1.83322e-10
1.66715e-08
-1.78346e-10
1.67287e-08
-1.73432e-10
1.67844e-08
-1.68725e-10
1.68384e-08
-1.63996e-10
1.68909e-08
-1.59548e-10
1.69419e-08
-1.54998e-10
1.69915e-08
-1.50801e-10
1.70397e-08
-1.4643e-10
1.70865e-08
-1.42474e-10
1.7132e-08
-1.3828e-10
1.71762e-08
-1.34557e-10
1.7219e-08
-1.3054e-10
1.72607e-08
-1.2704e-10
1.73012e-08
-1.23199e-10
1.73405e-08
-1.1991e-10
1.73786e-08
-1.16245e-10
1.74157e-08
-1.13156e-10
1.74517e-08
-1.09664e-10
1.74867e-08
-1.06763e-10
1.75206e-08
-1.03444e-10
1.75536e-08
-1.00716e-10
1.75855e-08
-9.7569e-11
1.76167e-08
-9.5002e-11
1.76468e-08
-9.20226e-11
1.76761e-08
-8.96057e-11
1.77046e-08
-8.67887e-11
1.77322e-08
-8.45129e-11
1.7759e-08
-8.1851e-11
1.77851e-08
-7.97097e-11
1.78104e-08
-7.71932e-11
1.7835e-08
-7.51815e-11
1.78588e-08
-7.28003e-11
1.7882e-08
-7.09137e-11
1.79045e-08
-6.86584e-11
1.79263e-08
-6.68914e-11
1.79475e-08
-6.47547e-11
1.79682e-08
-6.30994e-11
1.79881e-08
-6.10774e-11
1.80076e-08
-5.95234e-11
1.80264e-08
-5.76151e-11
1.80448e-08
-5.615e-11
1.80626e-08
-5.4356e-11
1.80799e-08
-5.29676e-11
1.80967e-08
-5.12879e-11
1.8113e-08
-4.99658e-11
1.81288e-08
-4.83985e-11
1.81443e-08
-4.71357e-11
1.81592e-08
-4.56757e-11
1.81737e-08
-4.44691e-11
1.81878e-08
-4.31083e-11
1.82015e-08
-4.19579e-11
1.82148e-08
-4.06862e-11
1.82278e-08
-3.95934e-11
1.82403e-08
-3.84003e-11
1.82526e-08
-3.73663e-11
1.82644e-08
-3.6243e-11
1.82759e-08
-3.52682e-11
1.82871e-08
-3.42082e-11
1.8298e-08
-3.32916e-11
1.83086e-08
-3.22903e-11
1.83188e-08
-3.14286e-11
1.83288e-08
-3.04826e-11
1.83385e-08
-2.96711e-11
1.83479e-08
-2.8777e-11
1.83571e-08
-2.80109e-11
1.8366e-08
-2.71663e-11
1.83746e-08
-2.64429e-11
1.8383e-08
-2.56465e-11
1.83911e-08
-2.4965e-11
1.83991e-08
-2.42157e-11
1.84068e-08
-2.35762e-11
1.84142e-08
-2.28718e-11
1.84215e-08
-2.22721e-11
1.84286e-08
-2.16079e-11
1.84355e-08
-2.10428e-11
1.84421e-08
-2.04122e-11
1.84486e-08
-1.98751e-11
1.84549e-08
-1.92719e-11
1.84611e-08
-1.87572e-11
1.8467e-08
-1.81781e-11
1.84728e-08
-1.76844e-11
1.84784e-08
-1.71313e-11
1.84839e-08
-1.66627e-11
1.84891e-08
-1.61437e-11
1.84943e-08
-1.57097e-11
1.84993e-08
-1.52381e-11
1.85041e-08
-1.48516e-11
1.85088e-08
-1.44417e-11
1.85134e-08
-1.41128e-11
1.85179e-08
-1.3772e-11
1.85223e-08
-1.35004e-11
1.85266e-08
-1.3219e-11
1.85309e-08
-1.29851e-11
1.8535e-08
-1.27305e-11
1.85391e-08
-1.24914e-11
1.85431e-08
-1.2209e-11
1.8547e-08
-1.19047e-11
1.85508e-08
-1.15303e-11
1.85544e-08
-1.10998e-11
1.85579e-08
-1.05791e-11
1.85612e-08
-9.98169e-12
1.85643e-08
-9.29195e-12
1.85671e-08
-8.52528e-12
1.85697e-08
-7.68665e-12
1.8572e-08
-6.79303e-12
1.8574e-08
-5.86689e-12
1.85757e-08
-4.92416e-12
1.85771e-08
-3.99732e-12
1.85782e-08
-3.09779e-12
1.8579e-08
-2.2596e-12
1.85796e-08
-1.48554e-12
1.85799e-08
-8.06305e-13
1.858e-08
-2.11061e-13
1.858e-08
2.71423e-13
1.85798e-08
6.71026e-13
1.85795e-08
9.54189e-13
1.85792e-08
1.17412e-12
1.85788e-08
1.28407e-12
1.85783e-08
1.36197e-12
1.85779e-08
1.34174e-12
1.85775e-08
1.32378e-12
1.85771e-08
1.22097e-12
1.85767e-08
1.15078e-12
1.85763e-08
1.00805e-12
1.8576e-08
9.19862e-13
1.85758e-08
7.6967e-13
1.85755e-08
6.85763e-13
1.85753e-08
5.48923e-13
1.85752e-08
4.80798e-13
1.85751e-08
3.67354e-13
1.85749e-08
3.18915e-13
1.85749e-08
2.30699e-13
1.85748e-08
2.01266e-13
1.85747e-08
1.3532e-13
1.85747e-08
1.21467e-13
1.85747e-08
7.34491e-14
1.85746e-08
7.03578e-14
1.85746e-08
3.61217e-14
1.85746e-08
3.96398e-14
1.85746e-08
1.45669e-14
1.85746e-08
2.31865e-14
1.85746e-08
1.8136e-15
1.85746e-08
1.60133e-14
1.85746e-08
-5.8386e-15
1.85746e-08
1.34286e-14
1.85746e-08
-9.69988e-15
1.85746e-08
1.21847e-14
1.85746e-08
-1.09847e-14
1.85746e-08
1.13851e-14
1.85746e-08
-1.11773e-14
1.85746e-08
1.09368e-14
1.85746e-08
-1.09856e-14
1.85746e-08
1.05501e-14
1.85746e-08
-1.05032e-14
1.85746e-08
9.90407e-15
1.85746e-08
-9.38738e-15
1.85746e-08
8.22421e-15
1.85746e-08
-6.92798e-15
1.85746e-08
5.14146e-15
1.85746e-08
-2.97293e-15
1.85746e-08
-3.51469e-17
1.85746e-08
4.29541e-15
1.85746e-08
-1.05978e-14
1.85746e-08
1.93477e-14
1.85746e-08
-3.61966e-14
1.85746e-08
5.32578e-14
1.85746e-08
-1.62059e-13
1.85747e-08
1.71039e-14
-1.58232e-12
1.31389e-08
-2.52495e-09
1.35135e-08
-1.53781e-09
1.379e-08
-1.08037e-09
1.40092e-08
-8.91667e-10
1.41914e-08
-7.20251e-10
1.43522e-08
-6.47643e-10
1.4499e-08
-5.84647e-10
1.46344e-08
-5.42675e-10
1.47617e-08
-5.08346e-10
1.48815e-08
-4.79748e-10
1.49957e-08
-4.56475e-10
1.51046e-08
-4.35388e-10
1.5209e-08
-4.17907e-10
1.53093e-08
-4.01427e-10
1.54061e-08
-3.87462e-10
1.54994e-08
-3.73934e-10
1.55898e-08
-3.62237e-10
1.56771e-08
-3.50667e-10
1.57619e-08
-3.40477e-10
1.5844e-08
-3.30248e-10
1.59237e-08
-3.21084e-10
1.6001e-08
-3.11811e-10
1.60761e-08
-3.03366e-10
1.6149e-08
-2.94811e-10
1.62199e-08
-2.86893e-10
1.62886e-08
-2.78908e-10
1.63555e-08
-2.71401e-10
1.64204e-08
-2.63897e-10
1.64834e-08
-2.56728e-10
1.65446e-08
-2.49652e-10
1.66041e-08
-2.42782e-10
1.66618e-08
-2.361e-10
1.67179e-08
-2.29505e-10
1.67724e-08
-2.23196e-10
1.68252e-08
-2.16863e-10
1.68766e-08
-2.10911e-10
1.69264e-08
-2.04834e-10
1.69749e-08
-1.99225e-10
1.70218e-08
-1.93398e-10
1.70675e-08
-1.8812e-10
1.71117e-08
-1.8254e-10
1.71548e-08
-1.77579e-10
1.71965e-08
-1.72244e-10
1.7237e-08
-1.67585e-10
1.72763e-08
-1.62492e-10
1.73145e-08
-1.5812e-10
1.73515e-08
-1.53266e-10
1.73875e-08
-1.49162e-10
1.74224e-08
-1.44545e-10
1.74563e-08
-1.40693e-10
1.74892e-08
-1.3631e-10
1.75212e-08
-1.32691e-10
1.75522e-08
-1.28537e-10
1.75823e-08
-1.25134e-10
1.76115e-08
-1.21206e-10
1.76399e-08
-1.18004e-10
1.76674e-08
-1.14292e-10
1.76941e-08
-1.11278e-10
1.77201e-08
-1.07772e-10
1.77453e-08
-1.04939e-10
1.77697e-08
-1.01626e-10
1.77935e-08
-9.89649e-11
1.78165e-08
-9.58315e-11
1.7839e-08
-9.33371e-11
1.78607e-08
-9.03703e-11
1.78818e-08
-8.80348e-11
1.79023e-08
-8.5225e-11
1.79222e-08
-8.30376e-11
1.79415e-08
-8.03796e-11
1.79603e-08
-7.83263e-11
1.79785e-08
-7.58186e-11
1.79963e-08
-7.3883e-11
1.80134e-08
-7.15262e-11
1.80302e-08
-6.96922e-11
1.80464e-08
-6.74861e-11
1.80621e-08
-6.574e-11
1.80774e-08
-6.36817e-11
1.80923e-08
-6.20147e-11
1.81067e-08
-6.0097e-11
1.81208e-08
-5.85051e-11
1.81344e-08
-5.67173e-11
1.81476e-08
-5.52004e-11
1.81604e-08
-5.35293e-11
1.81729e-08
-5.20888e-11
1.81851e-08
-5.05209e-11
1.81969e-08
-4.91584e-11
1.82083e-08
-4.7682e-11
1.82194e-08
-4.63977e-11
1.82302e-08
-4.50045e-11
1.82407e-08
-4.37969e-11
1.82509e-08
-4.2481e-11
1.82608e-08
-4.13458e-11
1.82705e-08
-4.01027e-11
1.82798e-08
-3.90335e-11
1.82889e-08
-3.78589e-11
1.82977e-08
-3.68496e-11
1.83063e-08
-3.57401e-11
1.83147e-08
-3.47869e-11
1.83227e-08
-3.37405e-11
1.83306e-08
-3.28425e-11
1.83383e-08
-3.1858e-11
1.83457e-08
-3.10151e-11
1.83529e-08
-3.00895e-11
1.836e-08
-2.92991e-11
1.83668e-08
-2.84266e-11
1.83734e-08
-2.76822e-11
1.83799e-08
-2.68543e-11
1.83861e-08
-2.6147e-11
1.83922e-08
-2.53555e-11
1.83981e-08
-2.4678e-11
1.84039e-08
-2.39181e-11
1.84095e-08
-2.3268e-11
1.84149e-08
-2.25417e-11
1.84201e-08
-2.19239e-11
1.84252e-08
-2.12415e-11
1.84302e-08
-2.06681e-11
1.8435e-08
-2.00468e-11
1.84397e-08
-1.95344e-11
1.84442e-08
-1.8993e-11
1.84487e-08
-1.85557e-11
1.8453e-08
-1.81047e-11
1.84572e-08
-1.77434e-11
1.84614e-08
-1.73719e-11
1.84655e-08
-1.70627e-11
1.84695e-08
-1.67299e-11
1.84734e-08
-1.64186e-11
1.84772e-08
-1.60546e-11
1.8481e-08
-1.56635e-11
1.84847e-08
-1.51841e-11
1.84882e-08
-1.46326e-11
1.84916e-08
-1.39655e-11
1.84948e-08
-1.31976e-11
1.84978e-08
-1.23096e-11
1.85006e-08
-1.13187e-11
1.85031e-08
-1.02323e-11
1.85054e-08
-9.07015e-12
1.85074e-08
-7.86252e-12
1.85091e-08
-6.62849e-12
1.85105e-08
-5.41176e-12
1.85117e-08
-4.22622e-12
1.85125e-08
-3.11795e-12
1.85131e-08
-2.09003e-12
1.85135e-08
-1.1846e-12
1.85137e-08
-3.86915e-13
1.85137e-08
2.6303e-13
1.85136e-08
8.05257e-13
1.85133e-08
1.19333e-12
1.8513e-08
1.49827e-12
1.85126e-08
1.65647e-12
1.85122e-08
1.77167e-12
1.85118e-08
1.75529e-12
1.85114e-08
1.74058e-12
1.8511e-08
1.61193e-12
1.85106e-08
1.52478e-12
1.85103e-08
1.34038e-12
1.851e-08
1.22647e-12
1.85097e-08
1.02984e-12
1.85095e-08
9.19454e-13
1.85093e-08
7.38811e-13
1.85091e-08
6.48043e-13
1.8509e-08
4.9732e-13
1.85089e-08
4.32088e-13
1.85088e-08
3.14227e-13
1.85087e-08
2.74118e-13
1.85087e-08
1.85585e-13
1.85086e-08
1.66304e-13
1.85086e-08
1.01574e-13
1.85086e-08
9.68678e-14
1.85086e-08
5.04709e-14
1.85085e-08
5.49557e-14
1.85085e-08
2.06745e-14
1.85085e-08
3.23728e-14
1.85085e-08
2.95319e-15
1.85085e-08
2.23455e-14
1.85085e-08
-7.6358e-15
1.85085e-08
1.85571e-14
1.85085e-08
-1.2989e-14
1.85085e-08
1.67307e-14
1.85085e-08
-1.488e-14
1.85085e-08
1.56637e-14
1.85085e-08
-1.53249e-14
1.85085e-08
1.51657e-14
1.85085e-08
-1.5274e-14
1.85085e-08
1.48424e-14
1.85085e-08
-1.48968e-14
1.85085e-08
1.42677e-14
1.85085e-08
-1.37762e-14
1.85085e-08
1.24965e-14
1.85085e-08
-1.11323e-14
1.85085e-08
9.24377e-15
1.85085e-08
-7.01089e-15
1.85085e-08
3.91798e-15
1.85085e-08
3.96592e-16
1.85085e-08
-6.67927e-15
1.85085e-08
1.4897e-14
1.85085e-08
-3.13511e-14
1.85085e-08
4.33405e-14
1.85085e-08
-1.66378e-13
1.85086e-08
-6.49808e-14
-2.29e-12
1.31404e-08
-3.16538e-09
1.35159e-08
-1.91329e-09
1.37923e-08
-1.35677e-09
1.40115e-08
-1.11085e-09
1.41936e-08
-9.02348e-10
1.43544e-08
-8.08492e-10
1.45012e-08
-7.31455e-10
1.46366e-08
-6.78082e-10
1.4764e-08
-6.35672e-10
1.48839e-08
-5.99653e-10
1.49981e-08
-5.70683e-10
1.51069e-08
-5.44217e-10
1.52113e-08
-5.22334e-10
1.53115e-08
-5.0164e-10
1.54082e-08
-4.84068e-10
1.55013e-08
-4.67037e-10
1.55913e-08
-4.52249e-10
1.56782e-08
-4.37635e-10
1.57625e-08
-4.24703e-10
1.5844e-08
-4.11749e-10
1.5923e-08
-4.00089e-10
1.59995e-08
-3.88329e-10
1.60737e-08
-3.77576e-10
1.61456e-08
-3.66723e-10
1.62154e-08
-3.56648e-10
1.6283e-08
-3.46527e-10
1.63486e-08
-3.3699e-10
1.64122e-08
-3.27493e-10
1.64739e-08
-3.18409e-10
1.65337e-08
-3.09471e-10
1.65917e-08
-3.0079e-10
1.66479e-08
-2.92369e-10
1.67025e-08
-2.84059e-10
1.67554e-08
-2.76126e-10
1.68067e-08
-2.6817e-10
1.68565e-08
-2.60702e-10
1.69048e-08
-2.53087e-10
1.69516e-08
-2.46065e-10
1.6997e-08
-2.38783e-10
1.70411e-08
-2.32187e-10
1.70838e-08
-2.2523e-10
1.71252e-08
-2.19042e-10
1.71654e-08
-2.12403e-10
1.72044e-08
-2.06601e-10
1.72422e-08
-2.00275e-10
1.72789e-08
-1.94838e-10
1.73145e-08
-1.88819e-10
1.7349e-08
-1.83722e-10
1.73825e-08
-1.78006e-10
1.7415e-08
-1.73227e-10
1.74465e-08
-1.67806e-10
1.74771e-08
-1.63321e-10
1.75068e-08
-1.58191e-10
1.75356e-08
-1.53977e-10
1.75636e-08
-1.49129e-10
1.75907e-08
-1.45167e-10
1.7617e-08
-1.4059e-10
1.76426e-08
-1.36865e-10
1.76674e-08
-1.32545e-10
1.76915e-08
-1.29044e-10
1.77148e-08
-1.24965e-10
1.77375e-08
-1.21679e-10
1.77595e-08
-1.17823e-10
1.77809e-08
-1.14744e-10
1.78017e-08
-1.11094e-10
1.78218e-08
-1.08213e-10
1.78414e-08
-1.04758e-10
1.78604e-08
-1.0206e-10
1.78788e-08
-9.87937e-11
1.78967e-08
-9.62611e-11
1.79141e-08
-9.31809e-11
1.7931e-08
-9.07938e-11
1.79474e-08
-8.78999e-11
1.79633e-08
-8.56385e-11
1.79788e-08
-8.29305e-11
1.79938e-08
-8.07782e-11
1.80084e-08
-7.82517e-11
1.80226e-08
-7.61978e-11
1.80363e-08
-7.38439e-11
1.80497e-08
-7.18834e-11
1.80627e-08
-6.96887e-11
1.80753e-08
-6.78214e-11
1.80875e-08
-6.57696e-11
1.80994e-08
-6.39973e-11
1.8111e-08
-6.20719e-11
1.81222e-08
-6.03961e-11
1.81331e-08
-5.8583e-11
1.81437e-08
-5.70037e-11
1.8154e-08
-5.52927e-11
1.8164e-08
-5.38078e-11
1.81737e-08
-5.21919e-11
1.81832e-08
-5.0796e-11
1.81924e-08
-4.92697e-11
1.82013e-08
-4.7955e-11
1.82099e-08
-4.65131e-11
1.82184e-08
-4.5272e-11
1.82265e-08
-4.39101e-11
1.82345e-08
-4.27379e-11
1.82422e-08
-4.14534e-11
1.82497e-08
-4.03489e-11
1.8257e-08
-3.91402e-11
1.82641e-08
-3.81035e-11
1.82709e-08
-3.69672e-11
1.82776e-08
-3.59951e-11
1.82841e-08
-3.49241e-11
1.82905e-08
-3.40089e-11
1.82966e-08
-3.29932e-11
1.83026e-08
-3.21239e-11
1.83084e-08
-3.11532e-11
1.8314e-08
-3.03207e-11
1.83195e-08
-2.93889e-11
1.83248e-08
-2.85899e-11
1.833e-08
-2.7699e-11
1.8335e-08
-2.69389e-11
1.83398e-08
-2.61007e-11
1.83446e-08
-2.53939e-11
1.83492e-08
-2.46293e-11
1.83536e-08
-2.39959e-11
1.83579e-08
-2.33282e-11
1.83622e-08
-2.27863e-11
1.83663e-08
-2.2229e-11
1.83703e-08
-2.1781e-11
1.83743e-08
-2.13229e-11
1.83782e-08
-2.09416e-11
1.8382e-08
-2.05347e-11
1.83857e-08
-2.01559e-11
1.83894e-08
-1.97163e-11
1.8393e-08
-1.92459e-11
1.83964e-08
-1.86711e-11
1.83998e-08
-1.80098e-11
1.84031e-08
-1.72096e-11
1.84062e-08
-1.62863e-11
1.84091e-08
-1.52166e-11
1.84118e-08
-1.40193e-11
1.84142e-08
-1.27034e-11
1.84165e-08
-1.12911e-11
1.84184e-08
-9.81982e-12
1.84201e-08
-8.31146e-12
1.84215e-08
-6.82003e-12
1.84226e-08
-5.362e-12
1.84235e-08
-3.99473e-12
1.84241e-08
-2.72193e-12
1.84246e-08
-1.59668e-12
1.84248e-08
-6.0093e-13
1.84248e-08
2.14479e-13
1.84247e-08
8.98798e-13
1.84245e-08
1.39319e-12
1.84242e-08
1.78519e-12
1.84239e-08
1.99522e-12
1.84235e-08
2.15102e-12
1.84231e-08
2.14303e-12
1.84227e-08
2.13504e-12
1.84224e-08
1.98514e-12
1.8422e-08
1.8839e-12
1.84217e-08
1.66188e-12
1.84214e-08
1.52425e-12
1.84211e-08
1.28443e-12
1.84209e-08
1.14865e-12
1.84207e-08
9.26618e-13
1.84206e-08
8.13552e-13
1.84204e-08
6.2723e-13
1.84203e-08
5.45051e-13
1.84202e-08
3.98666e-13
1.84202e-08
3.47437e-13
1.84201e-08
2.37064e-13
1.84201e-08
2.11782e-13
1.842e-08
1.30845e-13
1.842e-08
1.23961e-13
1.842e-08
6.57265e-14
1.842e-08
7.07295e-14
1.842e-08
2.7419e-14
1.84199e-08
4.18763e-14
1.84199e-08
4.52221e-15
1.84199e-08
2.88494e-14
1.84199e-08
-9.13019e-15
1.84199e-08
2.37426e-14
1.84199e-08
-1.60698e-14
1.84199e-08
2.12909e-14
1.84199e-08
-1.86698e-14
1.84199e-08
1.99815e-14
1.84199e-08
-1.94791e-14
1.84199e-08
1.95066e-14
1.84199e-08
-1.96985e-14
1.84199e-08
1.93683e-14
1.84199e-08
-1.95932e-14
1.84199e-08
1.90497e-14
1.84199e-08
-1.87087e-14
1.84199e-08
1.74878e-14
1.84199e-08
-1.62721e-14
1.84199e-08
1.45617e-14
1.84199e-08
-1.26238e-14
1.84199e-08
9.92094e-15
1.84199e-08
-6.19244e-15
1.84199e-08
7.92148e-16
1.84199e-08
5.78032e-15
1.84199e-08
-2.05597e-14
1.84199e-08
2.69015e-14
1.84199e-08
-1.66385e-13
1.842e-08
-1.34154e-13
-2.9918e-12
1.31423e-08
-3.80773e-09
1.3519e-08
-2.28996e-09
1.37952e-08
-1.63299e-09
1.40143e-08
-1.32992e-09
1.41964e-08
-1.08441e-09
1.43572e-08
-9.69342e-10
1.45041e-08
-8.78287e-10
1.46395e-08
-8.13528e-10
1.47669e-08
-7.63036e-10
1.48868e-08
-7.19594e-10
1.5001e-08
-6.84896e-10
1.51098e-08
-6.53017e-10
1.52142e-08
-6.26667e-10
1.53142e-08
-6.0169e-10
1.54106e-08
-5.80413e-10
1.55033e-08
-5.59781e-10
1.55928e-08
-5.41779e-10
1.56792e-08
-5.24007e-10
1.57627e-08
-5.08197e-10
1.58433e-08
-4.92398e-10
1.59214e-08
-4.7811e-10
1.59968e-08
-4.63747e-10
1.60698e-08
-4.50562e-10
1.61404e-08
-4.37307e-10
1.62087e-08
-4.24967e-10
1.62748e-08
-4.1262e-10
1.63387e-08
-4.00965e-10
1.64006e-08
-3.89404e-10
1.64606e-08
-3.78335e-10
1.65186e-08
-3.67482e-10
1.65747e-08
-3.56938e-10
1.66291e-08
-3.46741e-10
1.66817e-08
-3.36683e-10
1.67327e-08
-3.27104e-10
1.6782e-08
-3.17505e-10
1.68299e-08
-3.08512e-10
1.68761e-08
-2.99354e-10
1.6921e-08
-2.9092e-10
1.69644e-08
-2.82187e-10
1.70065e-08
-2.74284e-10
1.70472e-08
-2.65963e-10
1.70867e-08
-2.58564e-10
1.7125e-08
-2.50643e-10
1.71621e-08
-2.4372e-10
1.7198e-08
-2.36188e-10
1.72329e-08
-2.29711e-10
1.72666e-08
-2.22559e-10
1.72994e-08
-2.16497e-10
1.73311e-08
-2.09715e-10
1.73619e-08
-2.04038e-10
1.73917e-08
-1.97618e-10
1.74207e-08
-1.92296e-10
1.74487e-08
-1.86228e-10
1.7476e-08
-1.81234e-10
1.75024e-08
-1.75505e-10
1.7528e-08
-1.70815e-10
1.75528e-08
-1.65412e-10
1.7577e-08
-1.61005e-10
1.76003e-08
-1.5591e-10
1.76231e-08
-1.51772e-10
1.76451e-08
-1.46964e-10
1.76665e-08
-1.43083e-10
1.76872e-08
-1.3854e-10
1.77074e-08
-1.34906e-10
1.77269e-08
-1.3061e-10
1.77459e-08
-1.2721e-10
1.77643e-08
-1.23145e-10
1.77822e-08
-1.19963e-10
1.77995e-08
-1.16122e-10
1.78164e-08
-1.13135e-10
1.78327e-08
-1.09515e-10
1.78486e-08
-1.067e-10
1.7864e-08
-1.033e-10
1.7879e-08
-1.00635e-10
1.78935e-08
-9.7454e-11
1.79077e-08
-9.49178e-11
1.79214e-08
-9.19508e-11
1.79347e-08
-8.95315e-11
1.79476e-08
-8.67671e-11
1.79602e-08
-8.44591e-11
1.79724e-08
-8.18814e-11
1.79842e-08
-7.96843e-11
1.79957e-08
-7.72741e-11
1.80069e-08
-7.51897e-11
1.80178e-08
-7.29277e-11
1.80284e-08
-7.09575e-11
1.80386e-08
-6.88273e-11
1.80486e-08
-6.6971e-11
1.80582e-08
-6.49608e-11
1.80676e-08
-6.32154e-11
1.80768e-08
-6.13172e-11
1.80857e-08
-5.96765e-11
1.80943e-08
-5.78837e-11
1.81027e-08
-5.63386e-11
1.81108e-08
-5.46452e-11
1.81187e-08
-5.31866e-11
1.81264e-08
-5.15873e-11
1.81338e-08
-5.02095e-11
1.81411e-08
-4.87011e-11
1.81481e-08
-4.74029e-11
1.8155e-08
-4.59833e-11
1.81617e-08
-4.47645e-11
1.81681e-08
-4.343e-11
1.81744e-08
-4.22873e-11
1.81805e-08
-4.10298e-11
1.81865e-08
-3.99542e-11
1.81922e-08
-3.8762e-11
1.81978e-08
-3.77409e-11
1.82033e-08
-3.66019e-11
1.82086e-08
-3.56242e-11
1.82137e-08
-3.4531e-11
1.82187e-08
-3.35924e-11
1.82236e-08
-3.25467e-11
1.82283e-08
-3.16529e-11
1.82329e-08
-3.06683e-11
1.82373e-08
-2.98356e-11
1.82416e-08
-2.8936e-11
1.82458e-08
-2.81881e-11
1.82499e-08
-2.74009e-11
1.82539e-08
-2.67594e-11
1.82577e-08
-2.61015e-11
1.82615e-08
-2.5571e-11
1.82652e-08
-2.50308e-11
1.82689e-08
-2.45815e-11
1.82724e-08
-2.41052e-11
1.82759e-08
-2.36641e-11
1.82794e-08
-2.31554e-11
1.82828e-08
-2.26135e-11
1.8286e-08
-2.19527e-11
1.82892e-08
-2.1193e-11
1.82923e-08
-2.0273e-11
1.82952e-08
-1.92098e-11
1.8298e-08
-1.79753e-11
1.83005e-08
-1.65901e-11
1.83029e-08
-1.50642e-11
1.8305e-08
-1.34221e-11
1.83069e-08
-1.17069e-11
1.83085e-08
-9.94371e-12
1.83099e-08
-8.19558e-12
1.8311e-08
-6.48175e-12
1.83119e-08
-4.86983e-12
1.83126e-08
-3.3646e-12
1.8313e-08
-2.02923e-12
1.83132e-08
-8.43101e-13
1.83133e-08
1.32805e-13
1.83133e-08
9.55857e-13
1.83131e-08
1.55566e-12
1.83128e-08
2.03466e-12
1.83125e-08
2.29853e-12
1.83122e-08
2.49687e-12
1.83118e-08
2.50103e-12
1.83115e-08
2.50251e-12
1.83111e-08
2.33576e-12
1.83108e-08
2.22314e-12
1.83105e-08
1.9678e-12
1.83102e-08
1.80857e-12
1.83099e-08
1.52929e-12
1.83097e-08
1.3695e-12
1.83095e-08
1.10905e-12
1.83094e-08
9.74381e-13
1.83093e-08
7.54673e-13
1.83091e-08
6.557e-13
1.83091e-08
4.82373e-13
1.8309e-08
4.19805e-13
1.83089e-08
2.88708e-13
1.83089e-08
2.57002e-13
1.83089e-08
1.60638e-13
1.83088e-08
1.51097e-13
1.83088e-08
8.15514e-14
1.83088e-08
8.66445e-14
1.83088e-08
3.4647e-14
1.83088e-08
5.1505e-14
1.83088e-08
6.47844e-15
1.83088e-08
3.54018e-14
1.83088e-08
-1.03084e-14
1.83088e-08
2.89033e-14
1.83088e-08
-1.89077e-14
1.83088e-08
2.58062e-14
1.83088e-08
-2.23099e-14
1.83088e-08
2.42871e-14
1.83088e-08
-2.35899e-14
1.83088e-08
2.3908e-14
1.83088e-08
-2.42033e-14
1.83088e-08
2.40697e-14
1.83088e-08
-2.45269e-14
1.83088e-08
2.41792e-14
1.83088e-08