/*--------------------------------*- C++ -*----------------------------------*\
| =========                 |                                                 |
| \\      /  F ield         | OpenFOAM: The Open Source CFD Toolbox           |
|  \\    /   O peration     | Version:  2412                                  |
|   \\  /    A nd           | Website:  www.openfoam.com                      |
|    \\/     M anipulation  |                                                 |
\*---------------------------------------------------------------------------*/
FoamFile
{
    version     2.0;
    format      ascii;
    arch        "LSB;label=32;scalar=64";
    class       volVectorField;
    location    "600";
    object      U;
}
// * * * * * * * * * * * * * * * * * * * * * * * * * * * * * * * * * * * * * //

dimensions      [0 1 -1 0 0 0 0];

internalField   nonuniform List<vector> 
8000
(
(0.0500194 -4.09715e-05 0)
(0.0544661 -2.79037e-05 0)
(0.0540705 -1.65022e-05 0)
(0.05597 -1.56348e-05 0)
(0.0562283 -1.15245e-05 0)
(0.0571992 -1.102e-05 0)
(0.0576367 -9.59817e-06 0)
(0.0583053 -9.10733e-06 0)
(0.0587562 -8.42404e-06 0)
(0.0593026 -8.0105e-06 0)
(0.0597261 -7.5898e-06 0)
(0.0602094 -7.258e-06 0)
(0.0606 -6.95859e-06 0)
(0.0610435 -6.69092e-06 0)
(0.061404 -6.45857e-06 0)
(0.0618184 -6.23699e-06 0)
(0.0621529 -6.04569e-06 0)
(0.062544 -5.8564e-06 0)
(0.0628559 -5.69147e-06 0)
(0.063227 -5.52483e-06 0)
(0.063519 -5.37731e-06 0)
(0.0638721 -5.22682e-06 0)
(0.0641462 -5.09106e-06 0)
(0.0644828 -4.95253e-06 0)
(0.0647404 -4.82498e-06 0)
(0.0650614 -4.69574e-06 0)
(0.0653038 -4.57425e-06 0)
(0.0656098 -4.45268e-06 0)
(0.0658379 -4.33598e-06 0)
(0.0661295 -4.22112e-06 0)
(0.0663442 -4.10851e-06 0)
(0.0666218 -3.99979e-06 0)
(0.0668239 -3.89093e-06 0)
(0.0670879 -3.788e-06 0)
(0.0672781 -3.68275e-06 0)
(0.067529 -3.58539e-06 0)
(0.067708 -3.48372e-06 0)
(0.0679462 -3.39175e-06 0)
(0.0681147 -3.29368e-06 0)
(0.0683405 -3.20694e-06 0)
(0.0684992 -3.11252e-06 0)
(0.0687131 -3.03083e-06 0)
(0.0688626 -2.9401e-06 0)
(0.069065 -2.86326e-06 0)
(0.0692058 -2.77625e-06 0)
(0.0693973 -2.70403e-06 0)
(0.06953 -2.62079e-06 0)
(0.0697109 -2.55293e-06 0)
(0.069836 -2.47346e-06 0)
(0.0700068 -2.40969e-06 0)
(0.0701248 -2.33402e-06 0)
(0.0702861 -2.27404e-06 0)
(0.0703974 -2.20215e-06 0)
(0.0705496 -2.14569e-06 0)
(0.0706545 -2.07755e-06 0)
(0.0707981 -2.02436e-06 0)
(0.0708971 -1.95987e-06 0)
(0.0710326 -1.90974e-06 0)
(0.071126 -1.84876e-06 0)
(0.0712538 -1.80155e-06 0)
(0.0713419 -1.74389e-06 0)
(0.0714624 -1.69949e-06 0)
(0.0715455 -1.64493e-06 0)
(0.0716592 -1.60324e-06 0)
(0.0717376 -1.55157e-06 0)
(0.0718448 -1.51247e-06 0)
(0.0719188 -1.46353e-06 0)
(0.0720199 -1.42688e-06 0)
(0.0720898 -1.38057e-06 0)
(0.0721851 -1.34613e-06 0)
(0.072251 -1.30243e-06 0)
(0.0723409 -1.26993e-06 0)
(0.0724031 -1.22885e-06 0)
(0.072488 -1.19803e-06 0)
(0.0725466 -1.15956e-06 0)
(0.0726267 -1.13018e-06 0)
(0.072682 -1.0943e-06 0)
(0.0727577 -1.06621e-06 0)
(0.0728097 -1.03279e-06 0)
(0.0728813 -1.00592e-06 0)
(0.0729301 -9.74785e-07 0)
(0.0729979 -9.49132e-07 0)
(0.0730438 -9.20051e-07 0)
(0.073108 -8.95655e-07 0)
(0.0731511 -8.68384e-07 0)
(0.0732119 -8.45286e-07 0)
(0.0732523 -8.19615e-07 0)
(0.07331 -7.97838e-07 0)
(0.0733479 -7.7361e-07 0)
(0.0734025 -7.53138e-07 0)
(0.0734381 -7.30244e-07 0)
(0.0734899 -7.11007e-07 0)
(0.0735233 -6.89359e-07 0)
(0.0735724 -6.71248e-07 0)
(0.0736037 -6.50776e-07 0)
(0.0736502 -6.33685e-07 0)
(0.0736796 -6.14342e-07 0)
(0.0737237 -5.98212e-07 0)
(0.0737513 -5.79976e-07 0)
(0.0737931 -5.64795e-07 0)
(0.0738189 -5.47646e-07 0)
(0.0738586 -5.33403e-07 0)
(0.0738828 -5.1728e-07 0)
(0.0739205 -5.03913e-07 0)
(0.0739432 -4.88695e-07 0)
(0.073979 -4.76079e-07 0)
(0.0740002 -4.61611e-07 0)
(0.0740342 -4.49592e-07 0)
(0.074054 -4.3574e-07 0)
(0.0740864 -4.2421e-07 0)
(0.0741049 -4.1092e-07 0)
(0.0741355 -3.99872e-07 0)
(0.0741528 -3.87216e-07 0)
(0.0741819 -3.76776e-07 0)
(0.0741979 -3.64966e-07 0)
(0.0742255 -3.55376e-07 0)
(0.0742405 -3.44729e-07 0)
(0.0742668 -3.3628e-07 0)
(0.0742807 -3.27102e-07 0)
(0.0743059 -3.19988e-07 0)
(0.074319 -3.12379e-07 0)
(0.0743433 -3.06504e-07 0)
(0.0743557 -3.00141e-07 0)
(0.0743791 -2.94936e-07 0)
(0.074391 -2.88954e-07 0)
(0.0744137 -2.83333e-07 0)
(0.0744249 -2.76402e-07 0)
(0.0744467 -2.68954e-07 0)
(0.0744571 -2.59608e-07 0)
(0.0744779 -2.49001e-07 0)
(0.074487 -2.3612e-07 0)
(0.0745062 -2.21592e-07 0)
(0.0745137 -2.04853e-07 0)
(0.074531 -1.86577e-07 0)
(0.0745363 -1.66673e-07 0)
(0.0745512 -1.45825e-07 0)
(0.0745541 -1.24337e-07 0)
(0.0745663 -1.02824e-07 0)
(0.0745667 -8.18063e-08 0)
(0.0745764 -6.17459e-08 0)
(0.0745744 -4.31851e-08 0)
(0.0745819 -2.63566e-08 0)
(0.0745778 -1.17093e-08 0)
(0.0745835 8.36683e-10 0)
(0.0745779 1.08957e-08 0)
(0.0745823 1.8955e-08 0)
(0.0745758 2.45377e-08 0)
(0.0745795 2.86204e-08 0)
(0.0745724 3.04388e-08 0)
(0.0745758 3.14894e-08 0)
(0.0745687 3.05758e-08 0)
(0.0745721 2.96705e-08 0)
(0.0745651 2.71046e-08 0)
(0.0745689 2.52141e-08 0)
(0.0745621 2.19255e-08 0)
(0.0745662 1.97795e-08 0)
(0.0745597 1.64505e-08 0)
(0.0745641 1.44984e-08 0)
(0.074558 1.15478e-08 0)
(0.0745627 1.00001e-08 0)
(0.0745568 7.61633e-09 0)
(0.0745617 6.52238e-09 0)
(0.074556 4.71935e-09 0)
(0.0745611 4.04141e-09 0)
(0.0745555 2.73396e-09 0)
(0.0745607 2.38808e-09 0)
(0.0745553 1.46932e-09 0)
(0.0745605 1.34699e-09 0)
(0.0745551 7.22638e-10 0)
(0.0745604 7.28873e-10 0)
(0.0745551 3.03489e-10 0)
(0.0745604 4.01644e-10 0)
(0.0745551 5.91936e-11 0)
(0.0745603 2.65964e-10 0)
(0.074555 -9.08187e-11 0)
(0.0745603 2.25564e-10 0)
(0.074555 -1.68501e-10 0)
(0.0745603 2.07966e-10 0)
(0.074555 -1.91654e-10 0)
(0.0745603 1.92787e-10 0)
(0.074555 -1.90232e-10 0)
(0.0745603 1.80239e-10 0)
(0.0745551 -1.79518e-10 0)
(0.0745603 1.66285e-10 0)
(0.0745551 -1.61866e-10 0)
(0.0745603 1.44565e-10 0)
(0.0745551 -1.27987e-10 0)
(0.0745603 9.55656e-11 0)
(0.0745551 -5.68252e-11 0)
(0.0745602 3.73391e-12 0)
(0.0745551 6.23113e-11 0)
(0.0745602 -1.55092e-10 0)
(0.0745551 2.88982e-10 0)
(0.0745602 -4.93965e-10 0)
(0.0745552 8.04663e-10 0)
(0.0745601 -1.4168e-09 0)
(0.0745554 2.34041e-09 0)
(0.0745598 -6.6043e-09 0)
(0.0745561 9.46241e-09 0)
(0.0745589 -2.14281e-08 0)
(0.0500181 -0.000124004 0)
(0.0544675 -8.08704e-05 0)
(0.0540721 -5.14317e-05 0)
(0.055972 -4.59574e-05 0)
(0.0562303 -3.51888e-05 0)
(0.0572015 -3.27847e-05 0)
(0.0576388 -2.8983e-05 0)
(0.0583076 -2.72469e-05 0)
(0.0587583 -2.53356e-05 0)
(0.0593049 -2.40149e-05 0)
(0.0597283 -2.27941e-05 0)
(0.0602119 -2.17739e-05 0)
(0.0606023 -2.0887e-05 0)
(0.0610459 -2.00763e-05 0)
(0.0614063 -1.93811e-05 0)
(0.0618206 -1.87137e-05 0)
(0.0621549 -1.81386e-05 0)
(0.0625457 -1.75693e-05 0)
(0.0628574 -1.70725e-05 0)
(0.0632279 -1.65713e-05 0)
(0.0635195 -1.61266e-05 0)
(0.0638719 -1.56738e-05 0)
(0.0641454 -1.52646e-05 0)
(0.064481 -1.48475e-05 0)
(0.0647379 -1.44633e-05 0)
(0.0650576 -1.4074e-05 0)
(0.0652992 -1.37085e-05 0)
(0.0656038 -1.3342e-05 0)
(0.0658309 -1.29914e-05 0)
(0.0661209 -1.26451e-05 0)
(0.0663346 -1.23072e-05 0)
(0.0666104 -1.19792e-05 0)
(0.0668114 -1.1653e-05 0)
(0.0670736 -1.13425e-05 0)
(0.0672627 -1.10275e-05 0)
(0.0675116 -1.07337e-05 0)
(0.0676895 -1.04298e-05 0)
(0.0679256 -1.01522e-05 0)
(0.0680931 -9.85937e-06 0)
(0.0683168 -9.5975e-06 0)
(0.0684744 -9.31584e-06 0)
(0.0686862 -9.06916e-06 0)
(0.0688346 -8.79875e-06 0)
(0.069035 -8.56664e-06 0)
(0.0691748 -8.30755e-06 0)
(0.0693642 -8.08934e-06 0)
(0.0694959 -7.84162e-06 0)
(0.0696748 -7.63654e-06 0)
(0.069799 -7.40023e-06 0)
(0.0699679 -7.20745e-06 0)
(0.0700849 -6.98254e-06 0)
(0.0702444 -6.8012e-06 0)
(0.0703547 -6.58764e-06 0)
(0.0705051 -6.41693e-06 0)
(0.0706092 -6.21456e-06 0)
(0.0707511 -6.05374e-06 0)
(0.0708493 -5.86225e-06 0)
(0.0709831 -5.71072e-06 0)
(0.0710757 -5.52967e-06 0)
(0.0712019 -5.387e-06 0)
(0.0712893 -5.21579e-06 0)
(0.0714083 -5.08165e-06 0)
(0.0714907 -4.91962e-06 0)
(0.0716029 -4.79373e-06 0)
(0.0716807 -4.64025e-06 0)
(0.0717865 -4.52225e-06 0)
(0.0718599 -4.37685e-06 0)
(0.0719597 -4.26625e-06 0)
(0.0720289 -4.12864e-06 0)
(0.072123 -4.02475e-06 0)
(0.0721883 -3.89487e-06 0)
(0.0722771 -3.79688e-06 0)
(0.0723387 -3.67477e-06 0)
(0.0724225 -3.58186e-06 0)
(0.0724806 -3.46753e-06 0)
(0.0725597 -3.379e-06 0)
(0.0726144 -3.27233e-06 0)
(0.0726892 -3.1877e-06 0)
(0.0727407 -3.08835e-06 0)
(0.0728114 -3.00744e-06 0)
(0.0728598 -2.91486e-06 0)
(0.0729267 -2.83766e-06 0)
(0.0729721 -2.75116e-06 0)
(0.0730355 -2.67777e-06 0)
(0.0730782 -2.59665e-06 0)
(0.0731383 -2.52718e-06 0)
(0.0731783 -2.4508e-06 0)
(0.0732352 -2.38531e-06 0)
(0.0732728 -2.31323e-06 0)
(0.0733267 -2.25166e-06 0)
(0.0733619 -2.18356e-06 0)
(0.0734131 -2.12569e-06 0)
(0.0734461 -2.06131e-06 0)
(0.0734946 -2.00682e-06 0)
(0.0735256 -1.94596e-06 0)
(0.0735716 -1.89453e-06 0)
(0.0736007 -1.83703e-06 0)
(0.0736442 -1.78847e-06 0)
(0.0736715 -1.73426e-06 0)
(0.0737128 -1.68854e-06 0)
(0.0737384 -1.63755e-06 0)
(0.0737776 -1.59465e-06 0)
(0.0738015 -1.54671e-06 0)
(0.0738388 -1.50647e-06 0)
(0.0738612 -1.46124e-06 0)
(0.0738966 -1.42328e-06 0)
(0.0739176 -1.38031e-06 0)
(0.0739512 -1.34419e-06 0)
(0.0739708 -1.30306e-06 0)
(0.0740027 -1.26843e-06 0)
(0.0740211 -1.22896e-06 0)
(0.0740514 -1.19576e-06 0)
(0.0740684 -1.15811e-06 0)
(0.0740972 -1.12668e-06 0)
(0.0741131 -1.09146e-06 0)
(0.0741404 -1.06248e-06 0)
(0.0741551 -1.03062e-06 0)
(0.0741811 -1.00495e-06 0)
(0.0741949 -9.77391e-07 0)
(0.0742198 -9.55681e-07 0)
(0.0742327 -9.32799e-07 0)
(0.0742566 -9.14874e-07 0)
(0.0742689 -8.95859e-07 0)
(0.074292 -8.80181e-07 0)
(0.0743036 -8.62609e-07 0)
(0.074326 -8.46093e-07 0)
(0.0743371 -8.26113e-07 0)
(0.0743587 -8.04606e-07 0)
(0.074369 -7.77843e-07 0)
(0.0743895 -7.47289e-07 0)
(0.0743987 -7.10251e-07 0)
(0.0744179 -6.68154e-07 0)
(0.0744255 -6.19612e-07 0)
(0.0744427 -5.66186e-07 0)
(0.0744483 -5.07896e-07 0)
(0.0744633 -4.46369e-07 0)
(0.0744666 -3.82808e-07 0)
(0.0744791 -3.18693e-07 0)
(0.0744798 -2.5589e-07 0)
(0.0744898 -1.9549e-07 0)
(0.0744881 -1.3944e-07 0)
(0.0744958 -8.81925e-08 0)
(0.0744922 -4.34358e-08 0)
(0.074498 -4.69233e-09 0)
(0.0744928 2.65108e-08 0)
(0.0744973 5.19065e-08 0)
(0.074491 6.96669e-08 0)
(0.0744947 8.30462e-08 0)
(0.0744879 8.9336e-08 0)
(0.0744913 9.34058e-08 0)
(0.0744842 9.12397e-08 0)
(0.0744877 8.91806e-08 0)
(0.0744807 8.17888e-08 0)
(0.0744844 7.65288e-08 0)
(0.0744777 6.67411e-08 0)
(0.0744816 6.05228e-08 0)
(0.0744752 5.04504e-08 0)
(0.0744795 4.46889e-08 0)
(0.0744734 3.5653e-08 0)
(0.074478 3.10427e-08 0)
(0.0744722 2.36581e-08 0)
(0.074477 2.03964e-08 0)
(0.0744713 1.47388e-08 0)
(0.0744763 1.27408e-08 0)
(0.0744708 8.57759e-09 0)
(0.0744759 7.59947e-09 0)
(0.0744706 4.62368e-09 0)
(0.0744757 4.33868e-09 0)
(0.0744704 2.2683e-09 0)
(0.0744756 2.39345e-09 0)
(0.0744703 9.29745e-10 0)
(0.0744755 1.35906e-09 0)
(0.0744703 1.43851e-10 0)
(0.0744755 9.20862e-10 0)
(0.0744703 -3.32924e-10 0)
(0.0744754 7.77133e-10 0)
(0.0744703 -5.74958e-10 0)
(0.0744754 7.10176e-10 0)
(0.0744703 -6.49102e-10 0)
(0.0744754 6.60372e-10 0)
(0.0744703 -6.49967e-10 0)
(0.0744754 6.24051e-10 0)
(0.0744703 -6.23086e-10 0)
(0.0744754 5.86242e-10 0)
(0.0744703 -5.75713e-10 0)
(0.0744754 5.25887e-10 0)
(0.0744703 -4.79078e-10 0)
(0.0744754 3.8517e-10 0)
(0.0744703 -2.75641e-10 0)
(0.0744754 1.25295e-10 0)
(0.0744703 6.0567e-11 0)
(0.0744754 -3.22814e-10 0)
(0.0744704 6.99247e-10 0)
(0.0744753 -1.27008e-09 0)
(0.0744704 2.12002e-09 0)
(0.0744752 -3.7704e-09 0)
(0.0744706 6.05761e-09 0)
(0.0744751 -1.67499e-08 0)
(0.0744709 1.7054e-08 0)
(0.0744754 -7.96499e-08 0)
(0.0500173 -0.00020877 0)
(0.0544722 -0.000130392 0)
(0.0540763 -8.85952e-05 0)
(0.0559763 -7.51198e-05 0)
(0.0562345 -5.95639e-05 0)
(0.0572059 -5.42094e-05 0)
(0.0576431 -4.85828e-05 0)
(0.0583122 -4.52905e-05 0)
(0.0587628 -4.23174e-05 0)
(0.0593096 -3.99955e-05 0)
(0.0597329 -3.8024e-05 0)
(0.0602166 -3.62866e-05 0)
(0.060607 -3.4825e-05 0)
(0.0610506 -3.34614e-05 0)
(0.0614108 -3.23041e-05 0)
(0.0618249 -3.1186e-05 0)
(0.0621589 -3.02235e-05 0)
(0.062549 -2.92702e-05 0)
(0.0628601 -2.84361e-05 0)
(0.0632296 -2.75961e-05 0)
(0.0635202 -2.68484e-05 0)
(0.0638711 -2.60886e-05 0)
(0.0641433 -2.54005e-05 0)
(0.064477 -2.47e-05 0)
(0.0647323 -2.40545e-05 0)
(0.0650497 -2.34004e-05 0)
(0.0652893 -2.2787e-05 0)
(0.0655911 -2.21714e-05 0)
(0.0658162 -2.15839e-05 0)
(0.0661031 -2.10022e-05 0)
(0.0663145 -2.04372e-05 0)
(0.066587 -1.98866e-05 0)
(0.0667856 -1.93422e-05 0)
(0.0670442 -1.8821e-05 0)
(0.0672308 -1.82964e-05 0)
(0.0674761 -1.78035e-05 0)
(0.0676515 -1.72982e-05 0)
(0.0678839 -1.68327e-05 0)
(0.0680487 -1.63467e-05 0)
(0.0682687 -1.59077e-05 0)
(0.0684237 -1.54409e-05 0)
(0.0686318 -1.50275e-05 0)
(0.0687777 -1.45799e-05 0)
(0.0689744 -1.41911e-05 0)
(0.0691117 -1.37628e-05 0)
(0.0692975 -1.33973e-05 0)
(0.0694267 -1.29882e-05 0)
(0.0696022 -1.26448e-05 0)
(0.0697239 -1.22549e-05 0)
(0.0698894 -1.19321e-05 0)
(0.0700042 -1.15614e-05 0)
(0.0701603 -1.12578e-05 0)
(0.0702685 -1.0906e-05 0)
(0.0704157 -1.06203e-05 0)
(0.0705177 -1.02871e-05 0)
(0.0706565 -1.0018e-05 0)
(0.0707527 -9.70292e-06 0)
(0.0708836 -9.44947e-06 0)
(0.0709743 -9.1516e-06 0)
(0.0710977 -8.91306e-06 0)
(0.0711832 -8.63142e-06 0)
(0.0712996 -8.40724e-06 0)
(0.0713802 -8.1407e-06 0)
(0.07149 -7.93041e-06 0)
(0.071566 -7.67793e-06 0)
(0.0716695 -7.48093e-06 0)
(0.0717413 -7.2417e-06 0)
(0.0718388 -7.05713e-06 0)
(0.0719065 -6.8307e-06 0)
(0.0719985 -6.65741e-06 0)
(0.0720624 -6.44368e-06 0)
(0.0721491 -6.2803e-06 0)
(0.0722094 -6.07934e-06 0)
(0.0722912 -5.92448e-06 0)
(0.072348 -5.73633e-06 0)
(0.0724253 -5.58883e-06 0)
(0.0724788 -5.41326e-06 0)
(0.0725519 -5.27236e-06 0)
(0.0726022 -5.10881e-06 0)
(0.0726713 -4.97415e-06 0)
(0.0727186 -4.82172e-06 0)
(0.072784 -4.6933e-06 0)
(0.0728284 -4.55086e-06 0)
(0.0728903 -4.42883e-06 0)
(0.072932 -4.29522e-06 0)
(0.0729907 -4.17973e-06 0)
(0.0730298 -4.05395e-06 0)
(0.0730854 -3.94506e-06 0)
(0.0731221 -3.82637e-06 0)
(0.0731748 -3.72398e-06 0)
(0.0732092 -3.61185e-06 0)
(0.0732592 -3.51561e-06 0)
(0.0732915 -3.40965e-06 0)
(0.0733389 -3.31901e-06 0)
(0.0733692 -3.21886e-06 0)
(0.0734141 -3.1333e-06 0)
(0.0734425 -3.03869e-06 0)
(0.0734851 -2.9579e-06 0)
(0.0735117 -2.86869e-06 0)
(0.0735521 -2.7926e-06 0)
(0.0735771 -2.70868e-06 0)
(0.0736154 -2.63727e-06 0)
(0.0736388 -2.55838e-06 0)
(0.0736752 -2.4914e-06 0)
(0.0736971 -2.41699e-06 0)
(0.0737316 -2.35387e-06 0)
(0.0737521 -2.2832e-06 0)
(0.073785 -2.22318e-06 0)
(0.0738042 -2.15557e-06 0)
(0.0738353 -2.09804e-06 0)
(0.0738533 -2.03314e-06 0)
(0.0738829 -1.97798e-06 0)
(0.0738996 -1.91602e-06 0)
(0.0739277 -1.86371e-06 0)
(0.0739432 -1.80564e-06 0)
(0.0739699 -1.75727e-06 0)
(0.0739843 -1.70459e-06 0)
(0.0740097 -1.66159e-06 0)
(0.0740231 -1.61587e-06 0)
(0.0740474 -1.57935e-06 0)
(0.07406 -1.54134e-06 0)
(0.0740834 -1.51118e-06 0)
(0.0740953 -1.47973e-06 0)
(0.0741178 -1.45359e-06 0)
(0.0741292 -1.42492e-06 0)
(0.074151 -1.39792e-06 0)
(0.0741618 -1.36583e-06 0)
(0.0741829 -1.33121e-06 0)
(0.0741929 -1.2885e-06 0)
(0.0742131 -1.23949e-06 0)
(0.0742221 -1.18022e-06 0)
(0.074241 -1.1124e-06 0)
(0.0742486 -1.03419e-06 0)
(0.0742657 -9.47526e-07 0)
(0.0742713 -8.52865e-07 0)
(0.0742863 -7.52289e-07 0)
(0.0742897 -6.48218e-07 0)
(0.0743023 -5.42574e-07 0)
(0.0743033 -4.38885e-07 0)
(0.0743134 -3.38525e-07 0)
(0.0743121 -2.45178e-07 0)
(0.0743199 -1.59223e-07 0)
(0.0743166 -8.39549e-08 0)
(0.0743226 -1.82244e-08 0)
(0.0743176 3.49055e-08 0)
(0.0743223 7.86979e-08 0)
(0.0743162 1.09562e-07 0)
(0.07432 1.33343e-07 0)
(0.0743134 1.44973e-07 0)
(0.0743168 1.53042e-07 0)
(0.0743099 1.50307e-07 0)
(0.0743133 1.4786e-07 0)
(0.0743065 1.36086e-07 0)
(0.07431 1.27988e-07 0)
(0.0743034 1.11914e-07 0)
(0.0743073 1.01953e-07 0)
(0.074301 8.5162e-08 0)
(0.0743052 7.57756e-08 0)
(0.0742992 6.05466e-08 0)
(0.0743036 5.29749e-08 0)
(0.0742979 4.03995e-08 0)
(0.0743025 3.50406e-08 0)
(0.074297 2.52966e-08 0)
(0.0743019 2.20506e-08 0)
(0.0742965 1.4789e-08 0)
(0.0743014 1.32658e-08 0)
(0.0742962 7.9984e-09 0)
(0.0743012 7.65805e-09 0)
(0.074296 3.91938e-09 0)
(0.074301 4.29628e-09 0)
(0.0742959 1.57666e-09 0)
(0.074301 2.49815e-09 0)
(0.0742959 1.93484e-10 0)
(0.0743009 1.72039e-09 0)
(0.0742959 -6.39292e-10 0)
(0.0743009 1.44711e-09 0)
(0.0742959 -1.05917e-09 0)
(0.0743009 1.31716e-09 0)
(0.0742959 -1.19456e-09 0)
(0.0743009 1.2304e-09 0)
(0.0742959 -1.20808e-09 0)
(0.0743009 1.17514e-09 0)
(0.0742959 -1.17635e-09 0)
(0.0743009 1.12358e-09 0)
(0.0742959 -1.11327e-09 0)
(0.0743009 1.03909e-09 0)
(0.0742959 -9.72184e-10 0)
(0.0743009 8.30424e-10 0)
(0.0742959 -6.69491e-10 0)
(0.0743009 4.481e-10 0)
(0.0742959 -1.78511e-10 0)
(0.0743008 -2.01896e-10 0)
(0.0742959 7.41132e-10 0)
(0.0743008 -1.54507e-09 0)
(0.074296 2.69702e-09 0)
(0.0743008 -4.89934e-09 0)
(0.074296 7.4336e-09 0)
(0.0743008 -2.10741e-08 0)
(0.0742962 8.30849e-09 0)
(0.0743015 -1.63852e-07 0)
(0.0500168 -0.000294001 0)
(0.05448 -0.000180033 0)
(0.0540831 -0.000125626 0)
(0.0559829 -0.000104274 0)
(0.0562411 -8.38957e-05 0)
(0.0572125 -7.56299e-05 0)
(0.0576497 -6.81676e-05 0)
(0.058319 -6.33313e-05 0)
(0.0587696 -5.92928e-05 0)
(0.0593166 -5.59743e-05 0)
(0.05974 -5.32502e-05 0)
(0.0602237 -5.07965e-05 0)
(0.0606141 -4.87574e-05 0)
(0.0610575 -4.68391e-05 0)
(0.0614176 -4.52147e-05 0)
(0.0618311 -4.36419e-05 0)
(0.0621645 -4.22848e-05 0)
(0.0625536 -4.09417e-05 0)
(0.0628636 -3.97619e-05 0)
(0.0632314 -3.85762e-05 0)
(0.0635205 -3.75166e-05 0)
(0.063869 -3.64426e-05 0)
(0.0641392 -3.54666e-05 0)
(0.0644698 -3.44759e-05 0)
(0.0647225 -3.35607e-05 0)
(0.0650363 -3.26358e-05 0)
(0.0652729 -3.17671e-05 0)
(0.0655707 -3.08973e-05 0)
(0.0657923 -3.00669e-05 0)
(0.0660747 -2.92459e-05 0)
(0.0662824 -2.84489e-05 0)
(0.0665501 -2.76727e-05 0)
(0.0667447 -2.69066e-05 0)
(0.0669983 -2.61728e-05 0)
(0.0671808 -2.54361e-05 0)
(0.0674209 -2.47431e-05 0)
(0.0675921 -2.4035e-05 0)
(0.0678192 -2.33813e-05 0)
(0.0679799 -2.27015e-05 0)
(0.0681945 -2.20858e-05 0)
(0.0683455 -2.14341e-05 0)
(0.0685482 -2.08548e-05 0)
(0.06869 -2.0231e-05 0)
(0.0688815 -1.96866e-05 0)
(0.0690148 -1.90904e-05 0)
(0.0691954 -1.85792e-05 0)
(0.0693208 -1.80105e-05 0)
(0.0694912 -1.75305e-05 0)
(0.0696092 -1.69891e-05 0)
(0.0697699 -1.65382e-05 0)
(0.069881 -1.60239e-05 0)
(0.0700325 -1.56001e-05 0)
(0.0701372 -1.51125e-05 0)
(0.0702799 -1.47138e-05 0)
(0.0703786 -1.42524e-05 0)
(0.0705131 -1.38771e-05 0)
(0.070606 -1.34409e-05 0)
(0.0707328 -1.30876e-05 0)
(0.0708204 -1.26755e-05 0)
(0.0709399 -1.23431e-05 0)
(0.0710225 -1.19536e-05 0)
(0.0711351 -1.16414e-05 0)
(0.071213 -1.12728e-05 0)
(0.0713192 -1.09801e-05 0)
(0.0713926 -1.06311e-05 0)
(0.0714927 -1.03569e-05 0)
(0.0715619 -1.00263e-05 0)
(0.0716563 -9.76955e-06 0)
(0.0717216 -9.45673e-06 0)
(0.0718105 -9.21565e-06 0)
(0.0718722 -8.92045e-06 0)
(0.071956 -8.69319e-06 0)
(0.0720141 -8.4157e-06 0)
(0.0720933 -8.20033e-06 0)
(0.072148 -7.94056e-06 0)
(0.0722228 -7.7355e-06 0)
(0.0722743 -7.4931e-06 0)
(0.072345 -7.29728e-06 0)
(0.0723934 -7.07146e-06 0)
(0.0724603 -6.88441e-06 0)
(0.0725058 -6.6739e-06 0)
(0.0725691 -6.49561e-06 0)
(0.0726118 -6.29886e-06 0)
(0.0726717 -6.12951e-06 0)
(0.0727118 -5.94493e-06 0)
(0.0727686 -5.78471e-06 0)
(0.0728062 -5.61092e-06 0)
(0.0728601 -5.45989e-06 0)
(0.0728954 -5.29589e-06 0)
(0.0729464 -5.15386e-06 0)
(0.0729795 -4.99896e-06 0)
(0.0730278 -4.86545e-06 0)
(0.0730589 -4.71909e-06 0)
(0.0731047 -4.59335e-06 0)
(0.0731339 -4.45505e-06 0)
(0.0731773 -4.33635e-06 0)
(0.0732046 -4.20571e-06 0)
(0.0732458 -4.09361e-06 0)
(0.0732714 -3.97042e-06 0)
(0.0733105 -3.86482e-06 0)
(0.0733345 -3.74891e-06 0)
(0.0733716 -3.6498e-06 0)
(0.0733941 -3.54083e-06 0)
(0.0734293 -3.44788e-06 0)
(0.0734504 -3.34514e-06 0)
(0.0734838 -3.25758e-06 0)
(0.0735035 -3.16006e-06 0)
(0.0735353 -3.07685e-06 0)
(0.0735537 -2.98359e-06 0)
(0.0735839 -2.90387e-06 0)
(0.0736011 -2.81434e-06 0)
(0.0736298 -2.73787e-06 0)
(0.0736458 -2.65234e-06 0)
(0.073673 -2.57973e-06 0)
(0.073688 -2.49943e-06 0)
(0.0737138 -2.43212e-06 0)
(0.0737277 -2.3591e-06 0)
(0.0737522 -2.29905e-06 0)
(0.0737651 -2.23551e-06 0)
(0.0737886 -2.18434e-06 0)
(0.0738007 -2.13143e-06 0)
(0.0738233 -2.08915e-06 0)
(0.0738347 -2.04549e-06 0)
(0.0738565 -2.00914e-06 0)
(0.0738673 -1.96979e-06 0)
(0.0738884 -1.93287e-06 0)
(0.0738988 -1.88948e-06 0)
(0.0739192 -1.84278e-06 0)
(0.0739288 -1.78545e-06 0)
(0.0739484 -1.71953e-06 0)
(0.0739571 -1.63985e-06 0)
(0.0739755 -1.5483e-06 0)
(0.0739829 -1.44257e-06 0)
(0.0739996 -1.32486e-06 0)
(0.0740052 -1.196e-06 0)
(0.0740199 -1.05845e-06 0)
(0.0740234 -9.15751e-07 0)
(0.0740359 -7.70236e-07 0)
(0.0740371 -6.27002e-07 0)
(0.0740472 -4.87725e-07 0)
(0.0740461 -3.57764e-07 0)
(0.074054 -2.37487e-07 0)
(0.074051 -1.31766e-07 0)
(0.074057 -3.88657e-08 0)
(0.0740524 3.66143e-08 0)
(0.0740571 9.93679e-08 0)
(0.0740514 1.44043e-07 0)
(0.0740552 1.78961e-07 0)
(0.0740488 1.96735e-07 0)
(0.0740522 2.09525e-07 0)
(0.0740456 2.06977e-07 0)
(0.0740488 2.04726e-07 0)
(0.0740422 1.89197e-07 0)
(0.0740457 1.78655e-07 0)
(0.0740393 1.56763e-07 0)
(0.074043 1.43262e-07 0)
(0.0740369 1.20072e-07 0)
(0.0740409 1.07111e-07 0)
(0.074035 8.58888e-08 0)
(0.0740393 7.53028e-08 0)
(0.0740337 5.76513e-08 0)
(0.0740382 5.00891e-08 0)
(0.0740329 3.63193e-08 0)
(0.0740375 3.1701e-08 0)
(0.0740323 2.13751e-08 0)
(0.0740371 1.91847e-08 0)
(0.074032 1.16499e-08 0)
(0.0740368 1.11479e-08 0)
(0.0740318 5.75879e-09 0)
(0.0740367 6.3083e-09 0)
(0.0740318 2.34025e-09 0)
(0.0740366 3.70487e-09 0)
(0.0740317 3.10796e-10 0)
(0.0740365 2.55685e-09 0)
(0.0740317 -9.04504e-10 0)
(0.0740365 2.13123e-09 0)
(0.0740317 -1.5165e-09 0)
(0.0740365 1.92725e-09 0)
(0.0740317 -1.72569e-09 0)
(0.0740365 1.80369e-09 0)
(0.0740317 -1.76519e-09 0)
(0.0740365 1.73722e-09 0)
(0.0740317 -1.74379e-09 0)
(0.0740365 1.68581e-09 0)
(0.0740317 -1.68411e-09 0)
(0.0740365 1.59823e-09 0)
(0.0740317 -1.52608e-09 0)
(0.0740365 1.35713e-09 0)
(0.0740317 -1.17242e-09 0)
(0.0740365 9.16847e-10 0)
(0.0740317 -6.13589e-10 0)
(0.0740365 1.85685e-10 0)
(0.0740317 4.10794e-10 0)
(0.0740365 -1.28264e-09 0)
(0.0740317 2.46566e-09 0)
(0.0740365 -4.75376e-09 0)
(0.0740317 6.74277e-09 0)
(0.0740366 -2.22053e-08 0)
(0.0740317 -3.63374e-09 0)
(0.0740373 -2.57911e-07 0)
(0.0500163 -0.000379311 0)
(0.054491 -0.000230015 0)
(0.0540926 -0.00016249 0)
(0.0559918 -0.000133498 0)
(0.05625 -0.000108178 0)
(0.0572214 -9.70739e-05 0)
(0.0576586 -8.77405e-05 0)
(0.058328 -8.13821e-05 0)
(0.0587788 -7.6267e-05 0)
(0.0593259 -7.19587e-05 0)
(0.0597494 -6.84768e-05 0)
(0.0602331 -6.53073e-05 0)
(0.0606235 -6.26849e-05 0)
(0.0610666 -6.02084e-05 0)
(0.0614263 -5.81087e-05 0)
(0.0618388 -5.60742e-05 0)
(0.0621714 -5.43121e-05 0)
(0.0625587 -5.25698e-05 0)
(0.0628672 -5.10323e-05 0)
(0.0632325 -4.94903e-05 0)
(0.0635193 -4.81061e-05 0)
(0.0638644 -4.67074e-05 0)
(0.0641316 -4.54313e-05 0)
(0.064458 -4.41406e-05 0)
(0.064707 -4.29445e-05 0)
(0.0650158 -4.17401e-05 0)
(0.0652482 -4.06067e-05 0)
(0.0655403 -3.94755e-05 0)
(0.0657572 -3.83943e-05 0)
(0.0660335 -3.73283e-05 0)
(0.066236 -3.62933e-05 0)
(0.0664972 -3.52876e-05 0)
(0.0666865 -3.42951e-05 0)
(0.0669333 -3.33463e-05 0)
(0.0671103 -3.23945e-05 0)
(0.0673434 -3.15001e-05 0)
(0.067509 -3.05876e-05 0)
(0.0677291 -2.97456e-05 0)
(0.0678841 -2.88716e-05 0)
(0.0680918 -2.80798e-05 0)
(0.068237 -2.72437e-05 0)
(0.0684329 -2.64999e-05 0)
(0.0685691 -2.57011e-05 0)
(0.0687538 -2.50031e-05 0)
(0.0688816 -2.42411e-05 0)
(0.0690556 -2.35863e-05 0)
(0.0691758 -2.28606e-05 0)
(0.0693397 -2.22464e-05 0)
(0.0694526 -2.15565e-05 0)
(0.069607 -2.09802e-05 0)
(0.0697132 -2.03256e-05 0)
(0.0698586 -1.97843e-05 0)
(0.0699586 -1.91643e-05 0)
(0.0700955 -1.86556e-05 0)
(0.0701897 -1.80693e-05 0)
(0.0703186 -1.75908e-05 0)
(0.0704073 -1.70371e-05 0)
(0.0705287 -1.65868e-05 0)
(0.0706122 -1.6064e-05 0)
(0.0707266 -1.56407e-05 0)
(0.0708053 -1.51468e-05 0)
(0.0709131 -1.47494e-05 0)
(0.0709873 -1.42824e-05 0)
(0.0710888 -1.39099e-05 0)
(0.0711587 -1.34678e-05 0)
(0.0712544 -1.31191e-05 0)
(0.0713203 -1.27005e-05 0)
(0.0714105 -1.2374e-05 0)
(0.0714727 -1.1978e-05 0)
(0.0715577 -1.16715e-05 0)
(0.0716163 -1.1298e-05 0)
(0.0716965 -1.10091e-05 0)
(0.0717517 -1.06581e-05 0)
(0.0718273 -1.03844e-05 0)
(0.0718793 -1.00558e-05 0)
(0.0719508 -9.79529e-06 0)
(0.0719997 -9.48878e-06 0)
(0.0720673 -9.24007e-06 0)
(0.0721133 -8.9545e-06 0)
(0.0721772 -8.71705e-06 0)
(0.0722204 -8.4508e-06 0)
(0.0722809 -8.22458e-06 0)
(0.0723214 -7.9757e-06 0)
(0.0723787 -7.76092e-06 0)
(0.0724168 -7.52739e-06 0)
(0.0724711 -7.32427e-06 0)
(0.0725067 -7.10436e-06 0)
(0.0725582 -6.91292e-06 0)
(0.0725917 -6.7054e-06 0)
(0.0726404 -6.52538e-06 0)
(0.0726718 -6.32939e-06 0)
(0.072718 -6.16016e-06 0)
(0.0727475 -5.97502e-06 0)
(0.0727913 -5.81565e-06 0)
(0.0728189 -5.64072e-06 0)
(0.0728605 -5.49027e-06 0)
(0.0728864 -5.32505e-06 0)
(0.0729258 -5.18294e-06 0)
(0.0729501 -5.02712e-06 0)
(0.0729874 -4.89324e-06 0)
(0.0730102 -4.74662e-06 0)
(0.0730456 -4.62095e-06 0)
(0.0730669 -4.48311e-06 0)
(0.0731006 -4.36527e-06 0)
(0.0731205 -4.23534e-06 0)
(0.0731525 -4.12437e-06 0)
(0.0731712 -4.00111e-06 0)
(0.0732016 -3.89569e-06 0)
(0.0732191 -3.77786e-06 0)
(0.0732479 -3.6769e-06 0)
(0.0732642 -3.5638e-06 0)
(0.0732916 -3.46692e-06 0)
(0.0733069 -3.35881e-06 0)
(0.0733329 -3.2667e-06 0)
(0.073347 -3.16507e-06 0)
(0.0733717 -3.07952e-06 0)
(0.0733848 -2.9869e-06 0)
(0.0734084 -2.91035e-06 0)
(0.0734206 -2.82956e-06 0)
(0.073443 -2.76414e-06 0)
(0.0734544 -2.69676e-06 0)
(0.073476 -2.64266e-06 0)
(0.0734868 -2.58718e-06 0)
(0.0735076 -2.54098e-06 0)
(0.0735178 -2.49144e-06 0)
(0.073538 -2.44518e-06 0)
(0.0735477 -2.39129e-06 0)
(0.0735673 -2.33351e-06 0)
(0.0735764 -2.26282e-06 0)
(0.0735951 -2.1815e-06 0)
(0.0736034 -2.08318e-06 0)
(0.0736211 -1.9699e-06 0)
(0.0736281 -1.83882e-06 0)
(0.0736443 -1.69237e-06 0)
(0.0736498 -1.53166e-06 0)
(0.0736641 -1.35948e-06 0)
(0.0736675 -1.18038e-06 0)
(0.0736797 -9.9708e-07 0)
(0.073681 -8.1612e-07 0)
(0.0736909 -6.39511e-07 0)
(0.0736901 -4.74175e-07 0)
(0.0736979 -3.20537e-07 0)
(0.0736952 -1.84972e-07 0)
(0.0737012 -6.52602e-08 0)
(0.0736969 3.25161e-08 0)
(0.0737016 1.1435e-07 0)
(0.0736962 1.7319e-07 0)
(0.0737 2.19657e-07 0)
(0.0736939 2.44163e-07 0)
(0.0736973 2.622e-07 0)
(0.0736909 2.60502e-07 0)
(0.0736941 2.58947e-07 0)
(0.0736878 2.4029e-07 0)
(0.0736911 2.27691e-07 0)
(0.073685 2.0051e-07 0)
(0.0736885 1.83712e-07 0)
(0.0736826 1.54534e-07 0)
(0.0736865 1.38105e-07 0)
(0.0736808 1.11187e-07 0)
(0.0736849 9.75936e-08 0)
(0.0736795 7.50668e-08 0)
(0.0736838 6.52447e-08 0)
(0.0736787 4.75811e-08 0)
(0.0736831 4.15007e-08 0)
(0.0736781 2.81995e-08 0)
(0.0736827 2.52406e-08 0)
(0.0736778 1.55017e-08 0)
(0.0736824 1.47433e-08 0)
(0.0736776 7.7477e-09 0)
(0.0736822 8.39447e-09 0)
(0.0736775 3.20501e-09 0)
(0.0736821 4.95916e-09 0)
(0.0736775 4.94192e-10 0)
(0.0736821 3.41729e-09 0)
(0.0736775 -1.12402e-09 0)
(0.0736821 2.82133e-09 0)
(0.0736775 -1.94183e-09 0)
(0.0736821 2.53597e-09 0)
(0.0736775 -2.23868e-09 0)
(0.073682 2.37819e-09 0)
(0.0736775 -2.31914e-09 0)
(0.073682 2.30997e-09 0)
(0.0736775 -2.32528e-09 0)
(0.073682 2.27478e-09 0)
(0.0736775 -2.29104e-09 0)
(0.073682 2.20872e-09 0)
(0.0736775 -2.14837e-09 0)
(0.073682 1.976e-09 0)
(0.0736775 -1.7977e-09 0)
(0.0736821 1.54754e-09 0)
(0.0736775 -1.26263e-09 0)
(0.0736821 8.58106e-10 0)
(0.0736774 -3.04063e-10 0)
(0.0736821 -4.93018e-10 0)
(0.0736774 1.50383e-09 0)
(0.0736821 -3.60051e-09 0)
(0.0736774 4.77518e-09 0)
(0.0736823 -2.21788e-08 0)
(0.0736773 -1.41469e-08 0)
(0.0736829 -3.53284e-07 0)
(0.0500158 -0.000464812 0)
(0.0545049 -0.000280165 0)
(0.0541047 -0.000199321 0)
(0.0560032 -0.000162722 0)
(0.0562613 -0.000132452 0)
(0.0572325 -0.000118522 0)
(0.0576699 -0.000107315 0)
(0.0583393 -9.9439e-05 0)
(0.0587904 -9.32458e-05 0)
(0.0593375 -8.79486e-05 0)
(0.0597613 -8.37053e-05 0)
(0.0602448 -7.9817e-05 0)
(0.0606352 -7.66042e-05 0)
(0.0610775 -7.35622e-05 0)
(0.0614366 -7.09762e-05 0)
(0.0618477 -6.84691e-05 0)
(0.0621789 -6.62877e-05 0)
(0.0625637 -6.41331e-05 0)
(0.0628699 -6.22219e-05 0)
(0.0632316 -6.03096e-05 0)
(0.0635152 -5.85846e-05 0)
(0.0638557 -5.68473e-05 0)
(0.0641186 -5.5256e-05 0)
(0.0644395 -5.36525e-05 0)
(0.0646835 -5.21621e-05 0)
(0.0649858 -5.06673e-05 0)
(0.0652124 -4.92577e-05 0)
(0.0654974 -4.78563e-05 0)
(0.065708 -4.65152e-05 0)
(0.0659765 -4.51977e-05 0)
(0.0661723 -4.39177e-05 0)
(0.0664254 -4.26777e-05 0)
(0.0666076 -4.14543e-05 0)
(0.066846 -4.02875e-05 0)
(0.0670158 -3.91178e-05 0)
(0.0672403 -3.80207e-05 0)
(0.0673987 -3.69026e-05 0)
(0.0676101 -3.58721e-05 0)
(0.0677579 -3.48041e-05 0)
(0.0679569 -3.38371e-05 0)
(0.0680951 -3.2818e-05 0)
(0.0682824 -3.19115e-05 0)
(0.0684116 -3.094e-05 0)
(0.0685879 -3.00908e-05 0)
(0.068709 -2.9166e-05 0)
(0.0688749 -2.83707e-05 0)
(0.0689884 -2.74915e-05 0)
(0.0691444 -2.67465e-05 0)
(0.0692509 -2.5912e-05 0)
(0.0693977 -2.52138e-05 0)
(0.0694978 -2.44231e-05 0)
(0.0696359 -2.37681e-05 0)
(0.0697299 -2.30202e-05 0)
(0.0698598 -2.24051e-05 0)
(0.0699483 -2.16986e-05 0)
(0.0700705 -2.11206e-05 0)
(0.0701538 -2.04539e-05 0)
(0.0702688 -1.99106e-05 0)
(0.0703472 -1.92816e-05 0)
(0.0704554 -1.87711e-05 0)
(0.0705292 -1.81773e-05 0)
(0.0706312 -1.76984e-05 0)
(0.0707007 -1.71371e-05 0)
(0.0707967 -1.66886e-05 0)
(0.0708622 -1.61576e-05 0)
(0.0709526 -1.57377e-05 0)
(0.0710144 -1.52352e-05 0)
(0.0710996 -1.48422e-05 0)
(0.0711578 -1.43672e-05 0)
(0.0712381 -1.39983e-05 0)
(0.0712929 -1.35504e-05 0)
(0.0713686 -1.32027e-05 0)
(0.0714202 -1.2782e-05 0)
(0.0714917 -1.24527e-05 0)
(0.0715403 -1.20591e-05 0)
(0.0716078 -1.17457e-05 0)
(0.0716535 -1.13785e-05 0)
(0.0717173 -1.10795e-05 0)
(0.0717603 -1.07373e-05 0)
(0.0718206 -1.0452e-05 0)
(0.0718609 -1.01329e-05 0)
(0.0719181 -9.86124e-06 0)
(0.0719559 -9.56295e-06 0)
(0.07201 -9.30514e-06 0)
(0.0720455 -9.02521e-06 0)
(0.0720968 -8.78146e-06 0)
(0.0721301 -8.51785e-06 0)
(0.0721787 -8.28816e-06 0)
(0.0722099 -8.03941e-06 0)
(0.072256 -7.82344e-06 0)
(0.0722852 -7.58852e-06 0)
(0.0723289 -7.3855e-06 0)
(0.0723564 -7.16362e-06 0)
(0.0723977 -6.97243e-06 0)
(0.0724235 -6.76283e-06 0)