/*--------------------------------*- C++ -*----------------------------------*\
| =========                 |                                                 |
| \\      /  F ield         | OpenFOAM: The Open Source CFD Toolbox           |
|  \\    /   O peration     | Version:  2412                                  |
|   \\  /    A nd           | Website:  www.openfoam.com                      |
|    \\/     M anipulation  |                                                 |
\*---------------------------------------------------------------------------*/
FoamFile
{
    version     2.0;
    format      ascii;
    arch        "LSB;label=32;scalar=64";
    class       volScalarField;
    location    "100";
    object      p;
}
// * * * * * * * * * * * * * * * * * * * * * * * * * * * * * * * * * * * * * //

dimensions      [0 2 -2 0 0 0 0];

internalField   nonuniform List<scalar> 
8000
(
0.00378126
0.00354663
0.00356842
0.00346446
0.00344922
0.00339563
0.00336935
0.00333239
0.00330464
0.00327438
0.00324767
0.00322074
0.00319549
0.00317083
0.00314748
0.00312519
0.00310415
0.00308418
0.0030652
0.00304703
0.00302951
0.00301247
0.00299573
0.00297915
0.00296262
0.00294606
0.00292945
0.00291277
0.00289603
0.00287925
0.00286243
0.00284559
0.00282874
0.00281187
0.002795
0.00277812
0.00276124
0.00274435
0.00272747
0.00271059
0.0026937
0.00267682
0.00265993
0.00264305
0.00262617
0.00260928
0.0025924
0.00257551
0.00255863
0.00254174
0.00252486
0.00250797
0.00249109
0.00247421
0.00245732
0.00244044
0.00242355
0.00240667
0.00238978
0.0023729
0.00235602
0.00233913
0.00232225
0.00230536
0.00228848
0.00227159
0.00225471
0.00223783
0.00222094
0.00220406
0.00218717
0.00217029
0.0021534
0.00213652
0.00211963
0.00210275
0.00208587
0.00206898
0.0020521
0.00203521
0.00201833
0.00200144
0.00198456
0.00196768
0.00195079
0.00193391
0.00191702
0.00190014
0.00188325
0.00186637
0.00184949
0.0018326
0.00181572
0.00179883
0.00178195
0.00176506
0.00174818
0.00173129
0.00171441
0.00169753
0.00168064
0.00166376
0.00164687
0.00162999
0.0016131
0.00159622
0.00157934
0.00156245
0.00154557
0.00152868
0.0015118
0.00149491
0.00147803
0.00146114
0.00144426
0.00142738
0.00141049
0.00139361
0.00137672
0.00135984
0.00134295
0.00132607
0.00130919
0.0012923
0.00127542
0.00125853
0.00124165
0.00122476
0.00120788
0.001191
0.00117411
0.00115723
0.00114034
0.00112346
0.00110657
0.00108969
0.0010728
0.00105593
0.00103902
0.00102217
0.00100524
0.000988427
0.000971438
0.000954695
0.000937624
0.000920981
0.00090379
0.000887287
0.000869938
0.00085361
0.000836073
0.00081994
0.000802205
0.000786267
0.000768349
0.000752574
0.00073452
0.000718847
0.000700731
0.000685075
0.00066699
0.000651253
0.000633301
0.000617381
0.000599656
0.000583471
0.000566044
0.000549536
0.000532446
0.000515596
0.000498843
0.000481672
0.000465215
0.000447781
0.000431547
0.000413935
0.000397833
0.000380132
0.00036408
0.00034636
0.000330308
0.000312593
0.00029655
0.000278794
0.000262834
0.000244956
0.000229132
0.00021115
0.000195346
0.00017746
0.000161454
0.000143823
0.000127581
0.00011012
9.37643e-05
7.64001e-05
5.98899e-05
4.26559e-05
2.54496e-05
8.45688e-06
0.00378135
0.00354662
0.00356837
0.00346446
0.00344921
0.00339563
0.00336934
0.00333238
0.00330464
0.00327438
0.00324767
0.00322074
0.00319549
0.00317083
0.00314748
0.00312518
0.00310415
0.00308417
0.00306519
0.00304702
0.0030295
0.00301246
0.00299573
0.00297915
0.00296262
0.00294606
0.00292945
0.00291277
0.00289603
0.00287925
0.00286243
0.00284559
0.00282874
0.00281187
0.002795
0.00277812
0.00276124
0.00274435
0.00272747
0.00271059
0.0026937
0.00267682
0.00265993
0.00264305
0.00262617
0.00260928
0.0025924
0.00257551
0.00255863
0.00254174
0.00252486
0.00250797
0.00249109
0.00247421
0.00245732
0.00244044
0.00242355
0.00240667
0.00238978
0.0023729
0.00235602
0.00233913
0.00232225
0.00230536
0.00228848
0.00227159
0.00225471
0.00223783
0.00222094
0.00220406
0.00218717
0.00217029
0.0021534
0.00213652
0.00211963
0.00210275
0.00208587
0.00206898
0.0020521
0.00203521
0.00201833
0.00200144
0.00198456
0.00196768
0.00195079
0.00193391
0.00191702
0.00190014
0.00188325
0.00186637
0.00184949
0.0018326
0.00181572
0.00179883
0.00178195
0.00176506
0.00174818
0.00173129
0.00171441
0.00169753
0.00168064
0.00166376
0.00164687
0.00162999
0.0016131
0.00159622
0.00157934
0.00156245
0.00154557
0.00152868
0.0015118
0.00149491
0.00147803
0.00146114
0.00144426
0.00142738
0.00141049
0.00139361
0.00137672
0.00135984
0.00134295
0.00132607
0.00130919
0.0012923
0.00127542
0.00125853
0.00124165
0.00122476
0.00120788
0.001191
0.00117411
0.00115723
0.00114034
0.00112346
0.00110657
0.00108969
0.0010728
0.00105593
0.00103902
0.00102217
0.00100524
0.000988427
0.000971439
0.000954695
0.000937624
0.000920981
0.00090379
0.000887287
0.000869938
0.00085361
0.000836073
0.00081994
0.000802205
0.000786266
0.000768349
0.000752574
0.00073452
0.000718847
0.000700731
0.000685075
0.000666991
0.000651252
0.000633301
0.000617381
0.000599656
0.00058347
0.000566044
0.000549536
0.000532446
0.000515596
0.000498843
0.000481672
0.000465215
0.000447781
0.000431546
0.000413935
0.000397833
0.000380132
0.00036408
0.000346361
0.000330308
0.000312593
0.000296549
0.000278794
0.000262834
0.000244956
0.000229132
0.00021115
0.000195346
0.00017746
0.000161454
0.000143823
0.000127581
0.00011012
9.37642e-05
7.64003e-05
5.989e-05
4.26562e-05
2.54478e-05
8.45522e-06
0.00378156
0.00354653
0.00356833
0.00346444
0.00344919
0.00339562
0.00336933
0.00333238
0.00330463
0.00327438
0.00324766
0.00322073
0.00319549
0.00317082
0.00314748
0.00312518
0.00310414
0.00308417
0.00306519
0.00304701
0.0030295
0.00301246
0.00299573
0.00297915
0.00296262
0.00294607
0.00292945
0.00291277
0.00289604
0.00287925
0.00286244
0.00284559
0.00282874
0.00281187
0.002795
0.00277812
0.00276124
0.00274435
0.00272747
0.00271059
0.0026937
0.00267682
0.00265993
0.00264305
0.00262617
0.00260928
0.0025924
0.00257551
0.00255863
0.00254174
0.00252486
0.00250797
0.00249109
0.00247421
0.00245732
0.00244044
0.00242355
0.00240667
0.00238978
0.0023729
0.00235602
0.00233913
0.00232225
0.00230536
0.00228848
0.00227159
0.00225471
0.00223783
0.00222094
0.00220406
0.00218717
0.00217029
0.0021534
0.00213652
0.00211963
0.00210275
0.00208587
0.00206898
0.0020521
0.00203521
0.00201833
0.00200144
0.00198456
0.00196768
0.00195079
0.00193391
0.00191702
0.00190014
0.00188325
0.00186637
0.00184949
0.0018326
0.00181572
0.00179883
0.00178195
0.00176506
0.00174818
0.00173129
0.00171441
0.00169753
0.00168064
0.00166376
0.00164687
0.00162999
0.0016131
0.00159622
0.00157934
0.00156245
0.00154557
0.00152868
0.0015118
0.00149491
0.00147803
0.00146114
0.00144426
0.00142738
0.00141049
0.00139361
0.00137672
0.00135984
0.00134295
0.00132607
0.00130919
0.0012923
0.00127542
0.00125853
0.00124165
0.00122476
0.00120788
0.001191
0.00117411
0.00115723
0.00114034
0.00112346
0.00110657
0.00108969
0.0010728
0.00105593
0.00103902
0.00102217
0.00100524
0.000988427
0.000971438
0.000954695
0.000937624
0.000920981
0.00090379
0.000887287
0.000869938
0.00085361
0.000836073
0.00081994
0.000802205
0.000786266
0.000768349
0.000752574
0.00073452
0.000718847
0.000700731
0.000685075
0.000666991
0.000651252
0.000633301
0.000617381
0.000599656
0.00058347
0.000566044
0.000549536
0.000532446
0.000515596
0.000498843
0.000481672
0.000465215
0.000447781
0.000431546
0.000413935
0.000397832
0.000380132
0.000364079
0.000346361
0.000330307
0.000312593
0.000296549
0.000278794
0.000262834
0.000244956
0.000229132
0.00021115
0.000195346
0.00017746
0.000161454
0.000143823
0.000127581
0.000110121
9.37643e-05
7.64002e-05
5.98903e-05
4.26565e-05
2.54501e-05
8.45769e-06
0.00378188
0.00354639
0.00356826
0.0034644
0.00344917
0.00339561
0.00336932
0.00333237
0.00330462
0.00327437
0.00324766
0.00322073
0.00319548
0.00317082
0.00314747
0.00312517
0.00310413
0.00308416
0.00306518
0.00304701
0.00302949
0.00301246
0.00299573
0.00297916
0.00296262
0.00294607
0.00292945
0.00291277
0.00289604
0.00287925
0.00286244
0.0028456
0.00282874
0.00281187
0.002795
0.00277812
0.00276124
0.00274435
0.00272747
0.00271059
0.0026937
0.00267682
0.00265993
0.00264305
0.00262617
0.00260928
0.0025924
0.00257551
0.00255863
0.00254174
0.00252486
0.00250797
0.00249109
0.00247421
0.00245732
0.00244044
0.00242355
0.00240667
0.00238978
0.0023729
0.00235602
0.00233913
0.00232225
0.00230536
0.00228848
0.00227159
0.00225471
0.00223783
0.00222094
0.00220406
0.00218717
0.00217029
0.0021534
0.00213652
0.00211963
0.00210275
0.00208587
0.00206898
0.0020521
0.00203521
0.00201833
0.00200144
0.00198456
0.00196768
0.00195079
0.00193391
0.00191702
0.00190014
0.00188325
0.00186637
0.00184949
0.0018326
0.00181572
0.00179883
0.00178195
0.00176506
0.00174818
0.00173129
0.00171441
0.00169753
0.00168064
0.00166376
0.00164687
0.00162999
0.0016131
0.00159622
0.00157934
0.00156245
0.00154557
0.00152868
0.0015118
0.00149491
0.00147803
0.00146114
0.00144426
0.00142738
0.00141049
0.00139361
0.00137672
0.00135984
0.00134295
0.00132607
0.00130919
0.0012923
0.00127542
0.00125853
0.00124165
0.00122476
0.00120788
0.001191
0.00117411
0.00115723
0.00114034
0.00112346
0.00110657
0.00108969
0.0010728
0.00105593
0.00103902
0.00102217
0.00100524
0.000988427
0.000971438
0.000954695
0.000937624
0.000920981
0.00090379
0.000887287
0.000869938
0.00085361
0.000836073
0.00081994
0.000802205
0.000786266
0.000768349
0.000752574
0.00073452
0.000718847
0.000700731
0.000685075
0.000666991
0.000651252
0.000633301
0.000617381
0.000599656
0.00058347
0.000566044
0.000549536
0.000532446
0.000515596
0.000498843
0.000481672
0.000465215
0.000447781
0.000431547
0.000413935
0.000397832
0.000380133
0.000364079
0.000346361
0.000330307
0.000312593
0.000296549
0.000278794
0.000262834
0.000244955
0.000229132
0.00021115
0.000195346
0.00017746
0.000161454
0.000143824
0.000127581
0.000110121
9.37643e-05
7.64002e-05
5.98909e-05
4.2657e-05
2.54564e-05
8.46412e-06
0.0037823
0.00354621
0.00356818
0.00346435
0.00344913
0.00339559
0.00336931
0.00333236
0.00330461
0.00327436
0.00324765
0.00322072
0.00319547
0.00317081
0.00314746
0.00312516
0.00310412
0.00308415
0.00306517
0.003047
0.00302949
0.00301245
0.00299573
0.00297916
0.00296263
0.00294607
0.00292946
0.00291278
0.00289604
0.00287925
0.00286244
0.0028456
0.00282874
0.00281187
0.002795
0.00277812
0.00276124
0.00274435
0.00272747
0.00271059
0.0026937
0.00267682
0.00265993
0.00264305
0.00262617
0.00260928
0.0025924
0.00257551
0.00255863
0.00254174
0.00252486
0.00250797
0.00249109
0.00247421
0.00245732
0.00244044
0.00242355
0.00240667
0.00238978
0.0023729
0.00235602
0.00233913
0.00232225
0.00230536
0.00228848
0.00227159
0.00225471
0.00223783
0.00222094
0.00220406
0.00218717
0.00217029
0.0021534
0.00213652
0.00211963
0.00210275
0.00208587
0.00206898
0.0020521
0.00203521
0.00201833
0.00200144
0.00198456
0.00196768
0.00195079
0.00193391
0.00191702
0.00190014
0.00188325
0.00186637
0.00184949
0.0018326
0.00181572
0.00179883
0.00178195
0.00176506
0.00174818
0.00173129
0.00171441
0.00169753
0.00168064
0.00166376
0.00164687
0.00162999
0.0016131
0.00159622
0.00157934
0.00156245
0.00154557
0.00152868
0.0015118
0.00149491
0.00147803
0.00146114
0.00144426
0.00142738
0.00141049
0.00139361
0.00137672
0.00135984
0.00134295
0.00132607
0.00130919
0.0012923
0.00127542
0.00125853
0.00124165
0.00122476
0.00120788
0.001191
0.00117411
0.00115723
0.00114034
0.00112346
0.00110657
0.00108969
0.0010728
0.00105593
0.00103902
0.00102217
0.00100524
0.000988427
0.000971438
0.000954695
0.000937624
0.000920981
0.00090379
0.000887287
0.000869938
0.00085361
0.000836073
0.00081994
0.000802205
0.000786266
0.000768349
0.000752574
0.00073452
0.000718847
0.000700731
0.000685075
0.000666991
0.000651252
0.000633301
0.000617381
0.000599656
0.00058347
0.000566044
0.000549536
0.000532446
0.000515596
0.000498843
0.000481672
0.000465215
0.000447781
0.000431547
0.000413935
0.000397832
0.000380133
0.000364079
0.000346362
0.000330307
0.000312594
0.000296549
0.000278794
0.000262835
0.000244955
0.000229133
0.000211149
0.000195347
0.00017746
0.000161454
0.000143824
0.00012758
0.000110121
9.37644e-05
7.64002e-05
5.98917e-05
4.26577e-05
2.54661e-05
8.47407e-06
0.00378282
0.00354599
0.00356808
0.00346429
0.00344909
0.00339557
0.00336929
0.00333235
0.0033046
0.00327435
0.00324764
0.00322071
0.00319547
0.0031708
0.00314745
0.00312515
0.00310411
0.00308413
0.00306516
0.00304699
0.00302948
0.00301245
0.00299573
0.00297916
0.00296263
0.00294607
0.00292946
0.00291278
0.00289604
0.00287926
0.00286244
0.0028456
0.00282874
0.00281187
0.002795
0.00277812
0.00276124
0.00274435
0.00272747
0.00271059
0.0026937
0.00267682
0.00265993
0.00264305
0.00262617
0.00260928
0.0025924
0.00257551
0.00255863
0.00254174
0.00252486
0.00250797
0.00249109
0.00247421
0.00245732
0.00244044
0.00242355
0.00240667
0.00238978
0.0023729
0.00235602
0.00233913
0.00232225
0.00230536
0.00228848
0.00227159
0.00225471
0.00223783
0.00222094
0.00220406
0.00218717
0.00217029
0.0021534
0.00213652
0.00211963
0.00210275
0.00208587
0.00206898
0.0020521
0.00203521
0.00201833
0.00200144
0.00198456
0.00196768
0.00195079
0.00193391
0.00191702
0.00190014
0.00188325
0.00186637
0.00184949
0.0018326
0.00181572
0.00179883
0.00178195
0.00176506
0.00174818
0.00173129
0.00171441
0.00169753
0.00168064
0.00166376
0.00164687
0.00162999
0.0016131
0.00159622
0.00157934
0.00156245
0.00154557
0.00152868
0.0015118
0.00149491
0.00147803
0.00146114
0.00144426
0.00142738
0.00141049
0.00139361
0.00137672
0.00135984
0.00134295
0.00132607
0.00130919
0.0012923
0.00127542
0.00125853
0.00124165
0.00122476
0.00120788
0.001191
0.00117411
0.00115723
0.00114034
0.00112346
0.00110657
0.00108969
0.0010728
0.00105593
0.00103902
0.00102217
0.00100524
0.000988427
0.000971438
0.000954695
0.000937624
0.000920981
0.00090379
0.000887287
0.000869938
0.00085361
0.000836073
0.00081994
0.000802205
0.000786266
0.000768349
0.000752574
0.00073452
0.000718847
0.000700731
0.000685075
0.000666991
0.000651252
0.000633301
0.000617381
0.000599656
0.00058347
0.000566044
0.000549536
0.000532446
0.000515596
0.000498843
0.000481672
0.000465215
0.000447781
0.000431547
0.000413935
0.000397832
0.000380133
0.000364078
0.000346362
0.000330306
0.000312594
0.000296549
0.000278793
0.000262835
0.000244955
0.000229133
0.000211149
0.000195347
0.00017746
0.000161454
0.000143824
0.00012758
0.000110121
9.37645e-05
7.64001e-05
5.98927e-05
4.26586e-05
2.54793e-05
8.48739e-06
0.00378345
0.00354571
0.00356795
0.00346422
0.00344904
0.00339554
0.00336927
0.00333233
0.00330459
0.00327434
0.00324763
0.0032207
0.00319546
0.00317079
0.00314744
0.00312514
0.0031041
0.00308412
0.00306515
0.00304698
0.00302947
0.00301244
0.00299572
0.00297916
0.00296263
0.00294608
0.00292946
0.00291278
0.00289604
0.00287926
0.00286244
0.0028456
0.00282874
0.00281187
0.002795
0.00277812
0.00276124
0.00274435
0.00272747
0.00271059
0.0026937
0.00267682
0.00265993
0.00264305
0.00262617
0.00260928
0.0025924
0.00257551
0.00255863
0.00254174
0.00252486
0.00250797
0.00249109
0.00247421
0.00245732
0.00244044
0.00242355
0.00240667
0.00238978
0.0023729
0.00235602
0.00233913
0.00232225
0.00230536
0.00228848
0.00227159
0.00225471
0.00223783
0.00222094
0.00220406
0.00218717
0.00217029
0.0021534
0.00213652
0.00211963
0.00210275
0.00208587
0.00206898
0.0020521
0.00203521
0.00201833
0.00200144
0.00198456
0.00196768
0.00195079
0.00193391
0.00191702
0.00190014
0.00188325
0.00186637
0.00184949
0.0018326
0.00181572
0.00179883
0.00178195
0.00176506
0.00174818
0.00173129
0.00171441
0.00169753
0.00168064
0.00166376
0.00164687
0.00162999
0.0016131
0.00159622
0.00157934
0.00156245
0.00154557
0.00152868
0.0015118
0.00149491
0.00147803
0.00146114
0.00144426
0.00142738
0.00141049
0.00139361
0.00137672
0.00135984
0.00134295
0.00132607
0.00130919
0.0012923
0.00127542
0.00125853
0.00124165
0.00122476
0.00120788
0.001191
0.00117411
0.00115723
0.00114034
0.00112346
0.00110657
0.00108969
0.0010728
0.00105593
0.00103902
0.00102217
0.00100524
0.000988427
0.000971438
0.000954695
0.000937624
0.000920981
0.00090379
0.000887287
0.000869938
0.00085361
0.000836073
0.00081994
0.000802205
0.000786266
0.000768349
0.000752574
0.00073452
0.000718847
0.000700731
0.000685075
0.000666991
0.000651252
0.000633301
0.000617381
0.000599656
0.00058347
0.000566044
0.000549536
0.000532446
0.000515596
0.000498843
0.000481672
0.000465215
0.000447781
0.000431547
0.000413935
0.000397832
0.000380133
0.000364078
0.000346362
0.000330306
0.000312594
0.000296549
0.000278793
0.000262835
0.000244955
0.000229133
0.000211149
0.000195347
0.00017746
0.000161454
0.000143824
0.00012758
0.000110121
9.37646e-05
7.64e-05
5.98938e-05
4.26596e-05
2.54958e-05
8.50404e-06
0.00378418
0.00354539
0.00356781
0.00346413
0.00344899
0.0033955
0.00336924
0.00333231
0.00330457
0.00327433
0.00324762
0.00322069
0.00319544
0.00317078
0.00314743
0.00312513
0.00310408
0.00308411
0.00306513
0.00304697
0.00302947
0.00301244
0.00299572
0.00297916
0.00296263
0.00294608
0.00292946
0.00291278
0.00289604
0.00287926
0.00286244
0.0028456
0.00282874
0.00281187
0.002795
0.00277812
0.00276124
0.00274435
0.00272747
0.00271059
0.0026937
0.00267682
0.00265993
0.00264305
0.00262617
0.00260928
0.0025924
0.00257551
0.00255863
0.00254174
0.00252486
0.00250797
0.00249109
0.00247421
0.00245732
0.00244044
0.00242355
0.00240667
0.00238978
0.0023729
0.00235602
0.00233913
0.00232225
0.00230536
0.00228848
0.00227159
0.00225471
0.00223783
0.00222094
0.00220406
0.00218717
0.00217029
0.0021534
0.00213652
0.00211963
0.00210275
0.00208587
0.00206898
0.0020521
0.00203521
0.00201833
0.00200144
0.00198456
0.00196768
0.00195079
0.00193391
0.00191702
0.00190014
0.00188325
0.00186637
0.00184949
0.0018326
0.00181572
0.00179883
0.00178195
0.00176506
0.00174818
0.00173129
0.00171441
0.00169753
0.00168064
0.00166376
0.00164687
0.00162999
0.0016131
0.00159622
0.00157934
0.00156245
0.00154557
0.00152868
0.0015118
0.00149491
0.00147803
0.00146114
0.00144426
0.00142738
0.00141049
0.00139361
0.00137672
0.00135984
0.00134295
0.00132607
0.00130919
0.0012923
0.00127542
0.00125853
0.00124165
0.00122476
0.00120788
0.001191
0.00117411
0.00115723
0.00114034
0.00112346
0.00110657
0.00108969
0.0010728
0.00105593
0.00103902
0.00102217
0.00100524
0.000988427
0.000971438
0.000954695
0.000937624
0.000920981
0.00090379
0.000887287
0.000869938
0.00085361
0.000836073
0.00081994
0.000802205
0.000786266
0.000768349
0.000752574
0.00073452
0.000718847
0.000700731
0.000685075
0.000666991
0.000651252
0.000633301
0.000617381
0.000599657
0.00058347
0.000566044
0.000549535
0.000532446
0.000515596
0.000498843
0.000481672
0.000465215
0.000447781
0.000431547
0.000413935
0.000397832
0.000380134
0.000364078
0.000346363
0.000330305
0.000312594
0.000296549
0.000278793
0.000262835
0.000244954
0.000229134
0.000211148
0.000195347
0.00017746
0.000161454
0.000143824
0.00012758
0.000110121
9.37648e-05
7.63999e-05
5.98952e-05
4.26609e-05
2.55155e-05
8.52389e-06
0.00378502
0.00354503
0.00356764
0.00346404
0.00344892
0.00339547
0.00336921
0.00333229
0.00330455
0.00327431
0.00324761
0.00322068
0.00319543
0.00317076
0.00314741
0.00312511
0.00310407
0.00308409
0.00306512
0.00304696
0.00302946
0.00301243
0.00299572
0.00297916
0.00296263
0.00294608
0.00292947
0.00291279
0.00289605
0.00287926
0.00286244
0.0028456
0.00282874
0.00281187
0.002795
0.00277812
0.00276124
0.00274435
0.00272747
0.00271059
0.0026937
0.00267682
0.00265993
0.00264305
0.00262617
0.00260928
0.0025924
0.00257551
0.00255863
0.00254174
0.00252486
0.00250797
0.00249109
0.00247421
0.00245732
0.00244044
0.00242355
0.00240667
0.00238978
0.0023729
0.00235602
0.00233913
0.00232225
0.00230536
0.00228848
0.00227159
0.00225471
0.00223783
0.00222094
0.00220406
0.00218717
0.00217029
0.0021534
0.00213652
0.00211963
0.00210275
0.00208587
0.00206898
0.0020521
0.00203521
0.00201833
0.00200144
0.00198456
0.00196768
0.00195079
0.00193391
0.00191702
0.00190014
0.00188325
0.00186637
0.00184949
0.0018326
0.00181572
0.00179883
0.00178195
0.00176506
0.00174818
0.00173129
0.00171441
0.00169753
0.00168064
0.00166376
0.00164687
0.00162999
0.0016131
0.00159622
0.00157934
0.00156245
0.00154557
0.00152868
0.0015118
0.00149491
0.00147803
0.00146114
0.00144426
0.00142738
0.00141049
0.00139361
0.00137672
0.00135984
0.00134295
0.00132607
0.00130919
0.0012923
0.00127542
0.00125853
0.00124165
0.00122476
0.00120788
0.001191
0.00117411
0.00115723
0.00114034
0.00112346
0.00110657
0.00108969
0.0010728
0.00105593
0.00103902
0.00102217
0.00100524
0.000988427
0.000971438
0.000954695
0.000937624
0.000920981
0.00090379
0.000887287
0.000869938
0.00085361
0.000836073
0.00081994
0.000802205
0.000786266
0.000768349
0.000752574
0.00073452
0.000718847
0.000700731
0.000685075
0.000666991
0.000651252
0.000633301
0.000617381
0.000599657
0.00058347
0.000566044
0.000549535
0.000532447
0.000515596
0.000498843
0.000481671
0.000465215
0.000447781
0.000431547
0.000413935
0.000397832
0.000380134
0.000364077
0.000346363
0.000330305
0.000312595
0.000296549
0.000278793
0.000262836
0.000244954
0.000229134
0.000211148
0.000195348
0.00017746
0.000161454
0.000143824
0.00012758
0.000110121
9.3765e-05
7.63998e-05
5.98968e-05
4.26623e-05
2.55383e-05
8.54684e-06
0.00378597
0.00354462
0.00356746
0.00346393
0.00344885
0.00339542
0.00336918
0.00333226
0.00330453
0.00327429
0.00324759
0.00322067
0.00319542
0.00317075
0.0031474
0.00312509
0.00310405
0.00308408
0.00306511
0.00304695
0.00302945
0.00301243
0.00299572
0.00297916
0.00296264
0.00294608
0.00292947
0.00291279
0.00289605
0.00287926
0.00286244
0.0028456
0.00282874
0.00281187
0.002795
0.00277812
0.00276124
0.00274435
0.00272747
0.00271059
0.0026937
0.00267682
0.00265993
0.00264305
0.00262617
0.00260928
0.0025924
0.00257551
0.00255863
0.00254174
0.00252486
0.00250797
0.00249109
0.00247421
0.00245732
0.00244044
0.00242355
0.00240667
0.00238978
0.0023729
0.00235602
0.00233913
0.00232225
0.00230536
0.00228848
0.00227159
0.00225471
0.00223783
0.00222094
0.00220406
0.00218717
0.00217029
0.0021534
0.00213652
0.00211963
0.00210275
0.00208587
0.00206898
0.0020521
0.00203521
0.00201833
0.00200144
0.00198456
0.00196768
0.00195079
0.00193391
0.00191702
0.00190014
0.00188325
0.00186637
0.00184949
0.0018326
0.00181572
0.00179883
0.00178195
0.00176506
0.00174818
0.00173129
0.00171441
0.00169753
0.00168064
0.00166376
0.00164687
0.00162999
0.0016131
0.00159622
0.00157934
0.00156245
0.00154557
0.00152868
0.0015118
0.00149491
0.00147803
0.00146114
0.00144426
0.00142738
0.00141049
0.00139361
0.00137672
0.00135984
0.00134295
0.00132607
0.00130919
0.0012923
0.00127542
0.00125853
0.00124165
0.00122476
0.00120788
0.001191
0.00117411
0.00115723
0.00114034
0.00112346
0.00110657
0.00108969
0.0010728
0.00105593
0.00103902
0.00102217
0.00100524
0.000988427
0.000971438
0.000954695
0.000937624
0.000920981
0.00090379
0.000887287
0.000869938
0.00085361
0.000836073
0.00081994
0.000802205
0.000786266
0.000768349
0.000752574
0.00073452
0.000718847
0.000700731
0.000685075
0.000666991
0.000651252
0.000633301
0.000617381
0.000599657
0.00058347
0.000566044
0.000549535
0.000532447
0.000515596
0.000498844
0.000481671
0.000465215
0.000447781
0.000431547
0.000413935
0.000397831
0.000380134
0.000364077
0.000346364
0.000330305
0.000312595
0.000296549
0.000278793
0.000262836
0.000244954
0.000229135
0.000211148
0.000195348
0.000177459
0.000161454
0.000143825
0.00012758
0.000110121
9.37652e-05
7.63997e-05
5.98985e-05
4.26638e-05
2.55641e-05
8.57273e-06
0.00378702
0.00354415
0.00356725
0.0034638
0.00344877
0.00339537
0.00336914
0.00333223
0.00330451
0.00327427
0.00324758
0.00322065
0.0031954
0.00317073
0.00314738
0.00312508
0.00310403
0.00308406
0.00306509
0.00304693
0.00302944
0.00301242
0.00299571
0.00297916
0.00296264
0.00294609
0.00292947
0.00291279
0.00289605
0.00287926
0.00286244
0.0028456
0.00282874
0.00281187
0.002795
0.00277812
0.00276124
0.00274435
0.00272747
0.00271059
0.0026937
0.00267682
0.00265993
0.00264305
0.00262617
0.00260928
0.0025924
0.00257551
0.00255863
0.00254174
0.00252486
0.00250797
0.00249109
0.00247421
0.00245732
0.00244044
0.00242355
0.00240667
0.00238978
0.0023729
0.00235602
0.00233913
0.00232225
0.00230536
0.00228848
0.00227159
0.00225471
0.00223783
0.00222094
0.00220406
0.00218717
0.00217029
0.0021534
0.00213652
0.00211963
0.00210275
0.00208587
0.00206898
0.0020521
0.00203521
0.00201833
0.00200144
0.00198456
0.00196768
0.00195079
0.00193391
0.00191702
0.00190014
0.00188325
0.00186637
0.00184949
0.0018326
0.00181572
0.00179883
0.00178195
0.00176506
0.00174818
0.00173129
0.00171441
0.00169753
0.00168064
0.00166376
0.00164687
0.00162999
0.0016131
0.00159622
0.00157934
0.00156245
0.00154557
0.00152868
0.0015118
0.00149491
0.00147803
0.00146114
0.00144426
0.00142738
0.00141049
0.00139361
0.00137672
0.00135984
0.00134295
0.00132607
0.00130919
0.0012923
0.00127542
0.00125853
0.00124165
0.00122476
0.00120788
0.001191
0.00117411
0.00115723
0.00114034
0.00112346
0.00110657
0.00108969
0.0010728
0.00105593
0.00103902
0.00102217
0.00100524
0.000988427
0.000971438
0.000954695
0.000937624
0.000920981
0.00090379
0.000887287
0.000869938
0.00085361
0.000836073
0.00081994
0.000802205
0.000786266
0.000768349
0.000752574
0.00073452
0.000718847
0.000700731
0.000685075
0.000666991
0.000651252
0.000633301
0.000617381
0.000599657
0.00058347
0.000566044
0.000549535
0.000532447
0.000515596
0.000498844
0.000481671
0.000465215
0.000447781
0.000431547
0.000413935
0.000397831
0.000380135
0.000364076
0.000346364
0.000330304
0.000312595
0.000296549
0.000278793
0.000262836
0.000244953
0.000229135
0.000211147
0.000195349
0.000177459
0.000161453
0.000143825
0.000127579
0.000110121
9.37654e-05
7.63996e-05
5.99004e-05
4.26655e-05
2.55926e-05
8.6014e-06
0.00378818
0.00354364
0.00356702
0.00346367
0.00344868
0.00339532
0.0033691
0.0033322
0.00330448
0.00327425
0.00324756
0.00322063
0.00319539
0.00317071
0.00314736
0.00312506
0.00310401
0.00308404
0.00306507
0.00304692
0.00302943
0.00301242
0.00299571
0.00297916
0.00296264
0.00294609
0.00292948
0.00291279
0.00289605
0.00287927
0.00286245
0.0028456
0.00282874
0.00281187
0.002795
0.00277812
0.00276124
0.00274435
0.00272747
0.00271059
0.0026937
0.00267682
0.00265993
0.00264305
0.00262617
0.00260928
0.0025924
0.00257551
0.00255863
0.00254174
0.00252486
0.00250797
0.00249109
0.00247421
0.00245732
0.00244044
0.00242355
0.00240667
0.00238978
0.0023729
0.00235602
0.00233913
0.00232225
0.00230536
0.00228848
0.00227159
0.00225471
0.00223783
0.00222094
0.00220406
0.00218717
0.00217029
0.0021534
0.00213652
0.00211963
0.00210275
0.00208587
0.00206898
0.0020521
0.00203521
0.00201833
0.00200144
0.00198456
0.00196768
0.00195079
0.00193391
0.00191702
0.00190014
0.00188325
0.00186637
0.00184949
0.0018326
0.00181572
0.00179883
0.00178195
0.00176506
0.00174818
0.00173129
0.00171441
0.00169753
0.00168064
0.00166376
0.00164687
0.00162999
0.0016131
0.00159622
0.00157934
0.00156245
0.00154557
0.00152868
0.0015118
0.00149491
0.00147803
0.00146114
0.00144426
0.00142738
0.00141049
0.00139361
0.00137672
0.00135984
0.00134295
0.00132607
0.00130919
0.0012923
0.00127542
0.00125853
0.00124165
0.00122476
0.00120788
0.001191
0.00117411
0.00115723
0.00114034
0.00112346
0.00110657
0.00108969
0.0010728
0.00105593
0.00103902
0.00102217
0.00100524
0.000988427
0.000971438
0.000954695
0.000937624
0.000920981
0.00090379
0.000887287
0.000869938
0.00085361
0.000836073
0.00081994
0.000802205
0.000786266
0.000768349
0.000752574
0.00073452
0.000718847
0.000700731
0.000685075
0.000666991
0.000651252
0.000633301
0.000617381
0.000599657
0.00058347
0.000566044
0.000549535
0.000532447
0.000515596
0.000498844
0.000481671
0.000465216
0.000447781
0.000431547
0.000413935
0.000397831
0.000380135
0.000364076
0.000346365
0.000330304
0.000312596
0.000296548
0.000278793
0.000262836
0.000244953
0.000229135
0.000211147
0.000195349
0.000177459
0.000161453
0.000143825
0.000127579
0.000110121
9.37656e-05
7.63995e-05
5.99025e-05
4.26673e-05
2.56236e-05
8.63265e-06
0.00378945
0.00354309
0.00356676
0.00346352
0.00344859
0.00339526
0.00336906
0.00333217
0.00330446
0.00327423
0.00324754
0.00322062
0.00319537
0.00317069
0.00314734
0.00312503
0.00310399
0.00308402
0.00306506
0.0030469
0.00302942
0.00301241
0.00299571
0.00297916
0.00296264
0.00294609
0.00292948
0.0029128
0.00289606
0.00287927
0.00286245
0.0028456
0.00282874
0.00281187
0.002795
0.00277812
0.00276124
0.00274435
0.00272747
0.00271059
0.0026937
0.00267682
0.00265993
0.00264305
0.00262617
0.00260928
0.0025924
0.00257551
0.00255863
0.00254174
0.00252486
0.00250797
0.00249109
0.00247421
0.00245732
0.00244044
0.00242355
0.00240667
0.00238978
0.0023729
0.00235602
0.00233913
0.00232225
0.00230536
0.00228848
0.00227159
0.00225471
0.00223783
0.00222094
0.00220406
0.00218717
0.00217029
0.0021534
0.00213652
0.00211963
0.00210275
0.00208587
0.00206898
0.0020521
0.00203521
0.00201833
0.00200144
0.00198456
0.00196768
0.00195079
0.00193391
0.00191702
0.00190014
0.00188325
0.00186637
0.00184949
0.0018326
0.00181572
0.00179883
0.00178195
0.00176506
0.00174818
0.00173129
0.00171441
0.00169753
0.00168064
0.00166376
0.00164687
0.00162999
0.0016131
0.00159622
0.00157934
0.00156245
0.00154557
0.00152868
0.0015118
0.00149491
0.00147803
0.00146114
0.00144426
0.00142738
0.00141049
0.00139361
0.00137672
0.00135984
0.00134295
0.00132607
0.00130919
0.0012923
0.00127542
0.00125853
0.00124165
0.00122476
0.00120788
0.001191
0.00117411
0.00115723
0.00114034
0.00112346
0.00110657
0.00108969
0.0010728
0.00105593
0.00103902
0.00102217
0.00100524
0.000988427
0.000971438
0.000954695
0.000937624
0.000920981
0.00090379
0.000887287
0.000869938
0.00085361
0.000836073
0.00081994
0.000802205
0.000786266
0.000768349
0.000752574
0.00073452
0.000718847
0.000700731
0.000685075
0.000666991
0.000651252
0.000633301
0.000617381
0.000599657
0.00058347
0.000566044
0.000549535
0.000532447
0.000515595
0.000498844
0.000481671
0.000465216
0.000447781
0.000431547
0.000413935
0.000397831
0.000380135
0.000364075
0.000346365
0.000330303
0.000312596
0.000296548
0.000278793
0.000262836
0.000244953
0.000229136
0.000211146
0.000195349
0.000177459
0.000161453
0.000143825
0.000127579
0.000110121
9.37659e-05
7.63993e-05
5.99047e-05
4.26693e-05
2.5657e-05
8.66625e-06
0.00379082
0.00354248
0.00356649
0.00346336