/*--------------------------------*- C++ -*----------------------------------*\
| =========                 |                                                 |
| \\      /  F ield         | OpenFOAM: The Open Source CFD Toolbox           |
|  \\    /   O peration     | Version:  2412                                  |
|   \\  /    A nd           | Website:  www.openfoam.com                      |
|    \\/     M anipulation  |                                                 |
\*---------------------------------------------------------------------------*/
FoamFile
{
    version     2.0;
    format      ascii;
    arch        "LSB;label=32;scalar=64";
    class       surfaceScalarField;
    location    "100";
    object      phi;
}
// * * * * * * * * * * * * * * * * * * * * * * * * * * * * * * * * * * * * * //

dimensions      [0 3 -1 0 0 0 0];

oriented        oriented;

internalField   nonuniform List<scalar> 
15760
(
1.31111e-08
-6.11103e-10
1.3527e-08
-4.1591e-10
1.37778e-08
-2.50798e-10
1.40116e-08
-2.33751e-10
1.41855e-08
-1.73892e-10
1.43508e-08
-1.65325e-10
1.44953e-08
-1.44521e-10
1.46318e-08
-1.36534e-10
1.47579e-08
-1.26067e-10
1.48782e-08
-1.2026e-10
1.4993e-08
-1.14847e-10
1.51032e-08
-1.10187e-10
1.52068e-08
-1.03561e-10
1.5301e-08
-9.4211e-11
1.5382e-08
-8.10323e-11
1.54453e-08
-6.33286e-11
1.54859e-08
-4.06035e-11
1.54998e-08
-1.38567e-11
1.54858e-08
1.40038e-11
1.5447e-08
3.8834e-11
1.539e-08
5.69184e-11
1.53237e-08
6.63575e-11
1.52562e-08
6.7453e-11
1.51941e-08
6.21243e-11
1.51412e-08
5.29394e-11
1.50989e-08
4.22933e-11
1.50669e-08
3.196e-11
1.50439e-08
2.29895e-11
1.50281e-08
1.58149e-11
1.50177e-08
1.04417e-11
1.5011e-08
6.63578e-12
1.5007e-08
4.06887e-12
1.50045e-08
2.41218e-12
1.50032e-08
1.38521e-12
1.50024e-08
7.71837e-13
1.5002e-08
4.17861e-13
1.50017e-08
2.20103e-13
1.50016e-08
1.1294e-13
1.50016e-08
5.64857e-14
1.50015e-08
2.76302e-14
1.50015e-08
1.31402e-14
1.50015e-08
6.14967e-15
1.50015e-08
2.78402e-15
1.50015e-08
1.24281e-15
1.50015e-08
5.3334e-16
1.50015e-08
2.01454e-16
1.50015e-08
1.0312e-16
1.50015e-08
2.9839e-17
1.50015e-08
1.91671e-17
1.50015e-08
-9.07576e-18
1.50015e-08
3.22364e-18
1.50015e-08
-3.14245e-17
1.50015e-08
-2.77685e-17
1.50015e-08
-2.37283e-17
1.50015e-08
1.98249e-17
1.50015e-08
1.89573e-17
1.50015e-08
2.19149e-17
1.50015e-08
2.9289e-18
1.50015e-08
3.26791e-18
1.50015e-08
-3.8841e-18
1.50015e-08
2.85931e-18
1.50015e-08
-5.36922e-18
1.50015e-08
6.00848e-18
1.50015e-08
-6.21124e-18
1.50015e-08
1.05614e-17
1.50015e-08
3.04794e-18
1.50015e-08
1.47994e-17
1.50015e-08
1.45309e-17
1.50015e-08
9.99697e-18
1.50015e-08
1.0436e-17
1.50015e-08
6.9421e-18
1.50015e-08
6.13384e-18
1.50015e-08
-6.03029e-18
1.50015e-08
2.92455e-19
1.50015e-08
-1.01102e-17
1.50015e-08
-1.58517e-18
1.50015e-08
-8.87299e-18
1.50015e-08
-5.02918e-20
1.50015e-08
-4.65083e-18
1.50015e-08
-8.9982e-19
1.50015e-08
-6.31541e-18
1.50015e-08
-2.58665e-18
1.50015e-08
1.09971e-18
1.50015e-08
1.20865e-18
1.50015e-08
-2.80322e-18
1.50015e-08
-9.94017e-18
1.50015e-08
-1.65455e-18
1.50015e-08
-2.76769e-18
1.50015e-08
-1.51367e-17
1.50015e-08
-1.05149e-18
1.50015e-08
-8.5521e-18
1.50015e-08
-3.42554e-19
1.50015e-08
-5.02803e-18
1.50015e-08
-1.34064e-18
1.50015e-08
1.9232e-17
1.50015e-08
-1.92082e-18
1.50015e-08
1.894e-17
1.50015e-08
6.35e-18
1.50015e-08
1.68672e-17
1.50015e-08
7.80702e-18
1.50015e-08
-5.86284e-18
1.50015e-08
3.66533e-18
1.50015e-08
-5.88421e-18
1.50015e-08
3.14679e-20
1.50015e-08
-4.93301e-18
1.50015e-08
-2.2768e-18
1.50015e-08
7.04141e-18
1.50015e-08
-2.56391e-19
1.50015e-08
1.39145e-18
1.50015e-08
4.70851e-19
1.50015e-08
2.23337e-18
1.50015e-08
5.75719e-19
1.50015e-08
-5.57417e-18
1.50015e-08
-1.75808e-18
1.50015e-08
-5.38574e-18
1.50015e-08
-3.28278e-18
1.50015e-08
-1.13937e-17
1.50015e-08
2.29384e-20
1.50015e-08
-2.68907e-18
1.50015e-08
-7.36781e-18
1.50015e-08
7.65301e-18
1.50015e-08
-1.22917e-17
1.50015e-08
2.87593e-17
1.50015e-08
-1.43369e-17
1.50015e-08
3.10856e-17
1.50015e-08
-1.71159e-17
1.50015e-08
3.75208e-17
1.50015e-08
-3.49333e-17
1.50015e-08
6.17536e-17
1.50015e-08
-1.09521e-16
1.50015e-08
1.6784e-16
1.50015e-08
-2.99504e-16
1.50015e-08
4.56386e-16
1.50015e-08
-7.56796e-16
1.50015e-08
1.15334e-15
1.50015e-08
-1.76243e-15
1.50015e-08
2.60588e-15
1.50015e-08
-3.74813e-15
1.50015e-08
5.23953e-15
1.50015e-08
-7.08549e-15
1.50015e-08
9.2954e-15
1.50015e-08
-1.17999e-14
1.50015e-08
1.45009e-14
1.50015e-08
-1.72193e-14
1.50015e-08
1.96754e-14
1.50015e-08
-2.1584e-14
1.50015e-08
2.25075e-14
1.50015e-08
-2.20833e-14
1.50015e-08
1.98522e-14
1.50015e-08
-1.53414e-14
1.50015e-08
8.15994e-15
1.50015e-08
2.17462e-15
1.50015e-08
-1.58806e-14
1.50015e-08
3.33283e-14
1.50016e-08
-5.45121e-14
1.50015e-08
7.95969e-14
1.50016e-08
-1.0841e-13
1.50014e-08
1.40987e-13
1.50016e-08
-1.76941e-13
1.50014e-08
2.162e-13
1.50017e-08
-2.58169e-13
1.50014e-08
3.02663e-13
1.50017e-08
-3.48464e-13
1.50013e-08
3.94641e-13
1.50018e-08
-4.37869e-13
1.50013e-08
4.74528e-13
1.50018e-08
-4.96261e-13
1.50013e-08
4.93251e-13
1.50017e-08
-4.49132e-13
1.50014e-08
3.47163e-13
1.50016e-08
-1.69258e-13
1.50016e-08
-9.36707e-14
1.50012e-08
4.30958e-13
1.5002e-08
-8.03586e-13
1.50009e-08
1.12465e-12
1.50022e-08
-1.27732e-12
1.50011e-08
1.11428e-12
1.50016e-08
-5.27315e-13
1.50021e-08
-5.16622e-13
1.50002e-08
1.90391e-12
1.50036e-08
-3.3697e-12
1.4999e-08
4.56696e-12
1.50041e-08
-5.14671e-12
1.49992e-08
4.97409e-12
1.50033e-08
-4.09148e-12
1.50004e-08
2.82332e-12
1.50019e-08
-1.48e-12
1.50016e-08
3.45038e-13
1.50011e-08
4.88885e-13
1.50021e-08
-9.9018e-13
1.50009e-08
1.15149e-12
1.50019e-08
-1.00073e-12
1.50012e-08
6.89198e-13
1.50017e-08
-4.89436e-13
1.50012e-08
5.71938e-13
1.50022e-08
-9.96557e-13
1.50009e-08
1.30166e-12
1.50045e-08
-3.63095e-12
1.50007e-08
3.77945e-12
-1.3514e-11
1.31375e-08
-1.24856e-09
1.35108e-08
-7.89217e-10
1.37875e-08
-5.27488e-10
1.40067e-08
-4.52966e-10
1.41887e-08
-3.5595e-10
1.43497e-08
-3.26275e-10
1.44966e-08
-2.91488e-10
1.4632e-08
-2.71854e-10
1.47588e-08
-2.52883e-10
1.48785e-08
-2.39971e-10
1.49934e-08
-2.29744e-10
1.51035e-08
-2.20348e-10
1.52079e-08
-2.07865e-10
1.53036e-08
-1.89927e-10
1.53875e-08
-1.64995e-10
1.54558e-08
-1.31609e-10
1.55039e-08
-8.87283e-11
1.55276e-08
-3.7544e-11
1.55246e-08
1.69863e-11
1.54963e-08
6.7128e-11
1.5448e-08
1.05307e-10
1.53872e-08
1.2708e-10
1.53224e-08
1.32253e-10
1.52605e-08
1.2406e-10
1.52061e-08
1.07351e-10
1.51615e-08
8.69168e-11
1.5127e-08
6.64722e-11
1.51016e-08
4.83414e-11
1.50838e-08
3.35948e-11
1.50719e-08
2.23939e-11
1.50641e-08
1.43611e-11
1.50593e-08
8.88238e-12
1.50564e-08
5.30975e-12
1.50547e-08
3.07367e-12
1.50538e-08
1.72596e-12
1.50533e-08
9.41492e-13
1.5053e-08
4.99568e-13
1.50528e-08
2.58184e-13
1.50528e-08
1.30037e-13
1.50527e-08
6.40364e-14
1.50527e-08
3.068e-14
1.50527e-08
1.44472e-14
1.50527e-08
6.59206e-15
1.50527e-08
2.96454e-15
1.50527e-08
1.28345e-15
1.50527e-08
5.01208e-16
1.50527e-08
2.44077e-16
1.50527e-08
8.2364e-17
1.50527e-08
4.59012e-17
1.50527e-08
-1.15957e-17
1.50527e-08
8.34941e-18
1.50527e-08
-5.58465e-17
1.50527e-08
-5.67059e-17
1.50527e-08
-5.17603e-17
1.50527e-08
2.99668e-17
1.50527e-08
3.59192e-17
1.50527e-08
4.304e-17
1.50527e-08
9.31341e-18
1.50527e-08
7.54893e-18
1.50527e-08
-7.18044e-18
1.50527e-08
6.77727e-18
1.50527e-08
-1.06609e-17
1.50527e-08
1.16305e-17
1.50527e-08
-1.31706e-17
1.50527e-08
1.90708e-17
1.50527e-08
5.14295e-18
1.50527e-08
2.81491e-17
1.50527e-08
2.76799e-17
1.50527e-08
2.07272e-17
1.50527e-08
1.98104e-17
1.50527e-08
1.526e-17
1.50527e-08
1.32864e-17
1.50527e-08
-1.02665e-17
1.50527e-08
7.85868e-19
1.50527e-08
-1.88519e-17
1.50527e-08
-2.99208e-18
1.50527e-08
-1.7805e-17
1.50527e-08
-5.45613e-19
1.50527e-08
-9.1376e-18
1.50527e-08
-2.39114e-18
1.50527e-08
-1.21377e-17
1.50527e-08
-5.31973e-18
1.50527e-08
6.99214e-19
1.50527e-08
1.7527e-18
1.50527e-08
-5.37544e-18
1.50527e-08
-1.72528e-17
1.50527e-08
-4.30551e-18
1.50527e-08
-3.22735e-18
1.50527e-08
-2.97097e-17
1.50527e-08
-2.9311e-18
1.50527e-08
-1.69222e-17
1.50527e-08
-2.01617e-18
1.50527e-08
-8.86672e-18
1.50527e-08
-5.84952e-18
1.50527e-08
3.70937e-17
1.50527e-08
-4.04649e-18
1.50527e-08
3.56822e-17
1.50527e-08
1.29728e-17
1.50527e-08
3.20983e-17
1.50527e-08
1.79518e-17
1.50527e-08
-1.00821e-17
1.50527e-08
9.2231e-18
1.50527e-08
-1.11777e-17
1.50527e-08
3.12053e-19
1.50527e-08
-1.13785e-17
1.50527e-08
-2.89369e-18
1.50527e-08
9.87439e-18
1.50527e-08
2.753e-18
1.50527e-08
3.54497e-19
1.50527e-08
5.47971e-18
1.50527e-08
4.91834e-19
1.50527e-08
5.00666e-18
1.50527e-08
-1.48691e-17
1.50527e-08
1.21892e-18
1.50527e-08
-1.43759e-17
1.50527e-08
-8.51332e-19
1.50527e-08
-2.60664e-17
1.50527e-08
2.46217e-18
1.50527e-08
-7.84006e-18
1.50527e-08
-1.37234e-17
1.50527e-08
1.40151e-17
1.50527e-08
-2.47598e-17
1.50527e-08
5.54902e-17
1.50527e-08
-2.89171e-17
1.50527e-08
6.34779e-17
1.50527e-08
-3.69945e-17
1.50527e-08
8.26214e-17
1.50527e-08
-8.85412e-17
1.50527e-08
1.59978e-16
1.50527e-08
-2.81768e-16
1.50527e-08
4.59191e-16
1.50527e-08
-8.18442e-16
1.50527e-08
1.3047e-15
1.50527e-08
-2.19295e-15
1.50527e-08
3.45731e-15
1.50527e-08
-5.43594e-15
1.50527e-08
8.29642e-15
1.50527e-08
-1.23508e-14
1.50527e-08
1.79261e-14
1.50527e-08
-2.5314e-14
1.50527e-08
3.48527e-14
1.50527e-08
-4.67564e-14
1.50527e-08
6.11892e-14
1.50527e-08
-7.81284e-14
1.50527e-08
9.73093e-14
1.50528e-08
-1.18355e-13
1.50526e-08
1.40484e-13
1.50528e-08
-1.62908e-13
1.50526e-08
1.84448e-13
1.50528e-08
-2.03746e-13
1.50526e-08
2.19355e-13
1.50528e-08
-2.2954e-13
1.50526e-08
2.32843e-13
1.50528e-08
-2.2746e-13
1.50526e-08
2.12166e-13
1.50528e-08
-1.85458e-13
1.50526e-08
1.46427e-13
1.50528e-08
-9.4013e-14
1.50526e-08
2.79932e-14
1.50528e-08
5.21219e-14
1.50527e-08
-1.45594e-13
1.50527e-08
2.52095e-13
1.50527e-08
-3.6885e-13
1.50526e-08
4.93206e-13
1.50528e-08
-6.17187e-13
1.50525e-08
7.31819e-13
1.50529e-08
-8.18e-13
1.50525e-08
8.53745e-13
1.50529e-08
-8.04015e-13
1.50526e-08
6.34351e-13
1.50527e-08
-3.09805e-13
1.50528e-08
-1.83235e-13
1.50524e-08
8.14531e-13
1.50531e-08
-1.49476e-12
1.50522e-08
2.03919e-12
1.50531e-08
-2.21065e-12
1.50525e-08
1.72618e-12
1.50524e-08
-3.9982e-13
1.50537e-08
-1.78536e-12
1.5051e-08
4.55388e-12
1.5055e-08
-7.34564e-12
1.50501e-08
9.48852e-12
1.50553e-08
-1.03518e-11
1.50505e-08
9.76919e-12
1.50543e-08
-7.90835e-12
1.50517e-08
5.43468e-12
1.50531e-08
-2.91778e-12
1.50526e-08
8.27637e-13
1.50524e-08
7.14876e-13
1.50531e-08
-1.65817e-12
1.50523e-08
1.95917e-12
1.50529e-08
-1.65612e-12
1.50526e-08
1.0582e-12
1.50528e-08
-7.05584e-13
1.50524e-08
8.98437e-13
1.50532e-08
-1.69923e-12
1.50523e-08
2.15705e-12
1.50549e-08
-6.21879e-12
1.50557e-08
3.01279e-12
-3.29844e-11
1.3138e-08
-1.88658e-09
1.35118e-08
-1.163e-09
1.37885e-08
-8.04172e-10
1.40077e-08
-6.72203e-10
1.41898e-08
-5.38005e-10
1.43507e-08
-4.87219e-10
1.44977e-08
-4.38478e-10
1.46331e-08
-4.07248e-10
1.476e-08
-3.79729e-10
1.48796e-08
-3.596e-10
1.49944e-08
-3.44512e-10
1.51045e-08
-3.30527e-10
1.52092e-08
-3.12518e-10
1.53058e-08
-2.86542e-10
1.53917e-08
-2.50842e-10
1.54635e-08
-2.03464e-10
1.55175e-08
-1.42762e-10
1.55496e-08
-6.95565e-11
1.55566e-08
9.98129e-12
1.55385e-08
8.51482e-11
1.54993e-08
1.44591e-10
1.54455e-08
1.80888e-10
1.5385e-08
1.92686e-10
1.53251e-08
1.83949e-10
1.5271e-08
1.61468e-10
1.52256e-08
1.32337e-10
1.51898e-08
1.02299e-10
1.5163e-08
7.51154e-11
1.51439e-08
5.26621e-11
1.51309e-08
3.53906e-11
1.51224e-08
2.28694e-11
1.51171e-08
1.42469e-11
1.51138e-08
8.57515e-12
1.51119e-08
4.99653e-12
1.51108e-08
2.82339e-12
1.51102e-08
1.54949e-12
1.51098e-08
8.27023e-13
1.51097e-08
4.29876e-13
1.51096e-08
2.17732e-13
1.51095e-08
1.07793e-13
1.51095e-08
5.1945e-14
1.51095e-08
2.4578e-14
1.51095e-08
1.12863e-14
1.51095e-08
5.102e-15
1.51095e-08
2.22727e-15
1.51095e-08
8.86754e-16
1.51095e-08
4.20397e-16
1.51095e-08
1.51742e-16
1.51095e-08
8.03591e-17
1.51095e-08
-9.90446e-18
1.51095e-08
1.6603e-17
1.51095e-08
-7.47231e-17
1.51095e-08
-8.36371e-17
1.51095e-08
-8.28446e-17
1.51095e-08
3.30138e-17
1.51095e-08
4.96786e-17
1.51095e-08
6.32971e-17
1.51095e-08
1.77061e-17
1.51095e-08
1.29131e-17
1.51095e-08
-9.75323e-18
1.51095e-08
1.13659e-17
1.51095e-08
-1.56225e-17
1.51095e-08
1.68893e-17
1.51095e-08
-1.96723e-17
1.51095e-08
2.55523e-17
1.51095e-08
6.81577e-18
1.51095e-08
3.95515e-17
1.51095e-08
4.00714e-17
1.51095e-08
3.13369e-17
1.51095e-08
2.91044e-17
1.51095e-08
2.38171e-17
1.51095e-08
2.17678e-17
1.51095e-08
-1.32523e-17
1.51095e-08
1.80992e-18
1.51095e-08
-2.63715e-17
1.51095e-08
-4.1202e-18
1.51095e-08
-2.6686e-17
1.51095e-08
-1.71442e-18
1.51095e-08
-1.32398e-17
1.51095e-08
-4.14144e-18
1.51095e-08
-1.72049e-17
1.51095e-08
-8.40044e-18
1.51095e-08
-2.45323e-19
1.51095e-08
1.5774e-18
1.51095e-08
-7.23339e-18
1.51095e-08
-2.25942e-17
1.51095e-08
-7.38058e-18
1.51095e-08
-2.4905e-18
1.51095e-08
-4.35705e-17
1.51095e-08
-5.6541e-18
1.51095e-08
-2.47165e-17
1.51095e-08
-4.76282e-18
1.51095e-08
-1.15673e-17
1.51095e-08
-1.26091e-17
1.51095e-08
5.33885e-17
1.51095e-08
-6.54046e-18
1.51095e-08
5.02351e-17
1.51095e-08
1.93303e-17
1.51095e-08
4.61215e-17
1.51095e-08
2.94591e-17
1.51095e-08
-1.20939e-17
1.51095e-08
1.55598e-17
1.51095e-08
-1.48671e-17
1.51095e-08
-7.69406e-19
1.51095e-08
-1.73445e-17
1.51095e-08
-4.29712e-18
1.51095e-08
1.19881e-17
1.51095e-08
5.73924e-18
1.51095e-08
-3.92813e-19
1.51095e-08
1.04515e-17
1.51095e-08
-1.44898e-18
1.51095e-08
9.113e-18
1.51095e-08
-2.36161e-17
1.51095e-08
4.77171e-18
1.51095e-08
-2.28214e-17
1.51095e-08
2.66138e-18
1.51095e-08
-3.97948e-17
1.51095e-08
4.32597e-18
1.51095e-08
-1.18989e-17
1.51095e-08
-2.07359e-17
1.51095e-08
2.07608e-17
1.51095e-08
-3.75523e-17
1.51095e-08
7.95239e-17
1.51095e-08
-4.14849e-17
1.51095e-08
9.04085e-17
1.51095e-08
-4.90458e-17
1.51095e-08
1.13584e-16
1.51095e-08
-1.18532e-16
1.51095e-08
2.16078e-16
1.51095e-08
-3.74323e-16
1.51095e-08
6.15608e-16
1.51095e-08
-1.10168e-15
1.51095e-08
1.76017e-15
1.51095e-08
-2.98559e-15
1.51095e-08
4.73799e-15
1.51095e-08
-7.52842e-15
1.51095e-08
1.16011e-14
1.51095e-08
-1.74511e-14
1.51095e-08
2.56058e-14
1.51095e-08
-3.65794e-14
1.51095e-08
5.09832e-14
1.51095e-08
-6.9289e-14
1.51095e-08
9.19284e-14
1.51095e-08
-1.19081e-13
1.51095e-08
1.50598e-13
1.51095e-08
-1.86153e-13
1.51094e-08
2.24818e-13
1.51095e-08
-2.65609e-13
1.51094e-08
3.06878e-13
1.51096e-08
-3.46649e-13
1.51094e-08
3.82671e-13
1.51096e-08
-4.12214e-13
1.51094e-08
4.32758e-13
1.51096e-08
-4.41218e-13
1.51094e-08
4.35186e-13
1.51096e-08
-4.11812e-13
1.51094e-08
3.68979e-13
1.51096e-08
-3.04454e-13
1.51094e-08
2.17114e-13
1.51096e-08
-1.05629e-13
1.51094e-08
-2.94729e-14
1.51095e-08
1.87998e-13
1.51095e-08
-3.65864e-13
1.51094e-08
5.5878e-13
1.51096e-08
-7.54046e-13
1.51094e-08
9.3706e-13
1.51096e-08
-1.0775e-12
1.51093e-08
1.14083e-12
1.51096e-08
-1.07336e-12
1.51094e-08
8.24002e-13
1.51095e-08
-3.44026e-13
1.51097e-08
-3.79295e-13
1.51092e-08
1.2879e-12
1.51099e-08
-2.23335e-12
1.5109e-08
2.92663e-12
1.51098e-08
-3.01193e-12
1.51095e-08
2.08648e-12
1.5109e-08
8.26792e-14
1.51107e-08
-3.45289e-12
1.51077e-08
7.55045e-12
1.51118e-08
-1.15037e-11
1.5107e-08
1.43474e-11
1.51118e-08
-1.52365e-11
1.51076e-08
1.40617e-11
1.51108e-08
-1.11795e-11
1.51087e-08
7.59453e-12
1.51098e-08
-4.08087e-12
1.51094e-08
1.20925e-12
1.51092e-08
9.21451e-13
1.51098e-08
-2.24257e-12
1.51091e-08
2.64978e-12
1.51097e-08
-2.17635e-12
1.51094e-08
1.29199e-12
1.51095e-08
-7.93638e-13
1.51093e-08
1.07234e-12
1.51098e-08
-2.14626e-12
1.51094e-08
2.5377e-12
1.5111e-08
-7.84535e-12
1.51136e-08
4.88024e-13
-5.59207e-11
1.31391e-08
-2.52566e-09
1.35136e-08
-1.53748e-09
1.37902e-08
-1.08078e-09
1.40094e-08
-8.91411e-10
1.41914e-08
-7.20053e-10
1.43524e-08
-6.48162e-10
1.44994e-08
-5.8549e-10
1.46348e-08
-5.42701e-10
1.47617e-08
-5.06612e-10
1.48813e-08
-4.79193e-10
1.4996e-08
-4.59202e-10
1.51062e-08
-4.407e-10
1.5211e-08
-4.17338e-10
1.53081e-08
-3.83628e-10
1.5395e-08
-3.37805e-10
1.54693e-08
-2.77729e-10
1.55278e-08
-2.01225e-10
1.55666e-08
-1.08357e-10
1.55823e-08
-5.78141e-12
1.5574e-08
9.34951e-11
1.5544e-08
1.74596e-10
1.5498e-08
2.26891e-10
1.54433e-08
2.47359e-10
1.53871e-08
2.40158e-10
1.53349e-08
2.13649e-10
1.52902e-08
1.77072e-10
1.52543e-08
1.38207e-10
1.5227e-08
1.0235e-10
1.52074e-08
7.23081e-11
1.51938e-08
4.89352e-11
1.51849e-08
3.18279e-11
1.51792e-08
1.99488e-11
1.51757e-08
1.20763e-11
1.51736e-08
7.07516e-12
1.51724e-08
4.01891e-12
1.51717e-08
2.21672e-12
1.51714e-08
1.1889e-12
1.51712e-08
6.20896e-13
1.51711e-08
3.15942e-13
1.5171e-08
1.57101e-13
1.5171e-08
7.6066e-14
1.5171e-08
3.61328e-14
1.5171e-08
1.66783e-14
1.5171e-08
7.57106e-15
1.5171e-08
3.32779e-15
1.5171e-08
1.3427e-15
1.5171e-08
6.25112e-16
1.5171e-08
2.34241e-16
1.5171e-08
1.20838e-16
1.5171e-08
-4.47598e-18
1.5171e-08
2.75267e-17
1.5171e-08
-8.84166e-17
1.5171e-08
-1.07524e-16
1.5171e-08
-1.15464e-16
1.5171e-08
3.06975e-17
1.5171e-08
6.04154e-17
1.5171e-08
8.22611e-17
1.5171e-08
2.68507e-17
1.5171e-08
1.89326e-17
1.5171e-08
-1.14338e-17
1.5171e-08
1.64462e-17
1.5171e-08
-2.03018e-17
1.5171e-08
2.20222e-17
1.5171e-08
-2.55268e-17
1.5171e-08
3.03389e-17
1.5171e-08
7.65255e-18
1.5171e-08
4.9271e-17
1.5171e-08
5.16242e-17
1.5171e-08
4.15319e-17
1.5171e-08
3.82222e-17
1.5171e-08
3.19689e-17
1.5171e-08
3.10786e-17
1.5171e-08
-1.51823e-17
1.5171e-08
3.18283e-18
1.5171e-08
-3.2655e-17
1.5171e-08
-4.59127e-18
1.5171e-08
-3.50442e-17
1.5171e-08
-3.65823e-18
1.5171e-08
-1.69633e-17
1.5171e-08
-5.76809e-18
1.5171e-08
-2.19941e-17
1.5171e-08
-1.19604e-17
1.5171e-08
-1.20938e-18
1.5171e-08
1.34444e-18
1.5171e-08
-8.9052e-18
1.5171e-08
-2.7073e-17
1.5171e-08
-1.06397e-17
1.5171e-08
-7.43543e-19
1.5171e-08
-5.65135e-17
1.5171e-08
-8.76535e-18
1.5171e-08
-3.16668e-17
1.5171e-08
-7.98496e-18
1.5171e-08
-1.36409e-17
1.5171e-08
-2.07133e-17
1.5171e-08
6.80725e-17
1.5171e-08
-9.14287e-18
1.5171e-08
6.24948e-17
1.5171e-08
2.49841e-17
1.5171e-08
5.90384e-17
1.5171e-08
4.17281e-17
1.5171e-08
-1.28584e-17
1.5171e-08
2.19042e-17
1.5171e-08
-1.6886e-17
1.5171e-08
-2.13512e-18
1.5171e-08
-2.255e-17
1.5171e-08
-6.6109e-18
1.5171e-08
1.40945e-17
1.5171e-08
8.40934e-18
1.5171e-08
-1.32945e-18
1.5171e-08
1.44926e-17
1.5171e-08
-2.92204e-18
1.5171e-08
1.33048e-17
1.5171e-08
-3.16982e-17
1.5171e-08
8.44175e-18
1.5171e-08
-3.04709e-17
1.5171e-08
6.4051e-18
1.5171e-08
-5.26345e-17
1.5171e-08
5.21137e-18
1.5171e-08
-1.47777e-17
1.5171e-08
-2.81117e-17
1.5171e-08
2.73649e-17
1.5171e-08
-5.04172e-17
1.5171e-08
1.01117e-16
1.5171e-08
-5.20387e-17
1.5171e-08
1.12241e-16
1.5171e-08
-5.60743e-17
1.5171e-08
1.3502e-16
1.5171e-08
-1.31527e-16
1.5171e-08
2.42159e-16
1.5171e-08
-4.11316e-16
1.5171e-08
6.76132e-16
1.5171e-08
-1.2148e-15
1.5171e-08
1.93045e-15
1.5171e-08
-3.30551e-15
1.5171e-08
5.25987e-15
1.5171e-08
-8.43185e-15
1.5171e-08
1.30869e-14
1.5171e-08
-1.98442e-14
1.5171e-08
2.93566e-14
1.5171e-08
-4.22955e-14
1.5171e-08
5.94787e-14
1.5171e-08
-8.15899e-14
1.5171e-08
1.09305e-13
1.5171e-08
-1.43014e-13
1.5171e-08
1.82745e-13
1.5171e-08
-2.28316e-13
1.5171e-08
2.7881e-13
1.5171e-08
-3.33235e-13
1.51709e-08
3.89699e-13
1.5171e-08
-4.45863e-13
1.51709e-08
4.98934e-13
1.51711e-08
-5.4544e-13
1.51709e-08
5.82037e-13
1.51711e-08
-6.04543e-13
1.51709e-08
6.09511e-13
1.51711e-08
-5.92791e-13
1.51709e-08
5.51053e-13
1.51711e-08
-4.80788e-13
1.51709e-08
3.79803e-13
1.5171e-08
-2.45695e-13
1.51709e-08
7.85083e-14
1.5171e-08
1.2197e-13
1.5171e-08
-3.50614e-13
1.51709e-08
6.01656e-13
1.51711e-08
-8.57776e-13
1.51709e-08
1.09872e-12
1.51711e-08
-1.28293e-12
1.51709e-08
1.36341e-12
1.51711e-08
-1.26852e-12
1.5171e-08
9.32083e-13
1.51709e-08
-2.94808e-13
1.51712e-08
-6.50451e-13
1.51707e-08
1.81154e-12
1.51714e-08
-2.97548e-12
1.51706e-08
3.74716e-12
1.51712e-08
-3.65832e-12
1.51711e-08
2.20456e-12
1.51703e-08
8.65726e-13
1.51723e-08
-5.41554e-12
1.51691e-08
1.07511e-11
1.51733e-08
-1.56884e-11
1.51686e-08
1.90104e-11
1.51731e-08
-1.97235e-11
1.51693e-08
1.78463e-11
1.51721e-08
-1.39644e-11
1.51703e-08
9.39899e-12
1.51713e-08
-5.06783e-12
1.51709e-08
1.56655e-12
1.51708e-08
1.06282e-12
1.51713e-08
-2.72451e-12
1.51707e-08
3.22291e-12
1.51711e-08
-2.56912e-12
1.5171e-08
1.39431e-12
1.51709e-08
-7.43444e-13
1.51709e-08
1.07181e-12
1.51711e-08
-2.32588e-12
1.51711e-08
2.5038e-12
1.51722e-08
-8.86848e-12
1.51751e-08
-2.40963e-12
-8.05986e-11
1.31406e-08
-3.16624e-09
1.3516e-08
-1.9129e-09
1.37925e-08
-1.35725e-09
1.40116e-08
-1.11055e-09
1.41936e-08
-9.02079e-10
1.43546e-08
-8.09105e-10
1.45016e-08
-7.32521e-10
1.46371e-08
-6.78201e-10
1.4764e-08
-6.33535e-10
1.48836e-08
-5.98778e-10
1.49983e-08
-5.73846e-10
1.51084e-08
-5.50856e-10
1.52133e-08
-5.22212e-10
1.53105e-08
-4.80895e-10
1.53981e-08
-4.25309e-10
1.54738e-08
-3.53445e-10
1.55353e-08
-2.62788e-10
1.55794e-08
-1.52436e-10
1.56026e-08
-2.89442e-11
1.5603e-08
9.30409e-11
1.55821e-08
1.95505e-10
1.55444e-08
2.64579e-10
1.54966e-08
2.95215e-10
1.54454e-08
2.91312e-10
1.53966e-08
2.62431e-10
1.5354e-08
2.19747e-10
1.53192e-08
1.73013e-10
1.52924e-08
1.29098e-10
1.52729e-08
9.18192e-11
1.52593e-08
6.2518e-11
1.52503e-08
4.08897e-11
1.52444e-08
2.57618e-11
1.52408e-08
1.56716e-11
1.52387e-08
9.22412e-12
1.52375e-08
5.26275e-12
1.52368e-08
2.91511e-12
1.52364e-08
1.56985e-12
1.52362e-08
8.23104e-13
1.52361e-08
4.20465e-13
1.5236e-08
2.09845e-13
1.5236e-08
1.02008e-13
1.5236e-08
4.8618e-14
1.5236e-08
2.25371e-14
1.5236e-08
1.02669e-14
1.5236e-08
4.5377e-15
1.5236e-08
1.84921e-15
1.5236e-08
8.50189e-16
1.5236e-08
3.26121e-16
1.5236e-08
1.65599e-16
1.5236e-08
3.90142e-18
1.5236e-08
4.06183e-17
1.5236e-08
-9.76064e-17
1.5236e-08
-1.27993e-16
1.5236e-08
-1.4809e-16
1.5236e-08
2.44662e-17
1.5236e-08
6.84129e-17
1.5236e-08
9.96241e-17
1.5236e-08
3.60693e-17
1.5236e-08
2.5063e-17
1.5236e-08
-1.25842e-17
1.5236e-08
2.1864e-17
1.5236e-08
-2.45331e-17
1.5236e-08
2.69008e-17
1.5236e-08
-3.05523e-17
1.5236e-08
3.37942e-17
1.5236e-08
7.73441e-18
1.5236e-08
5.74821e-17
1.5236e-08
6.22146e-17
1.5236e-08
5.10673e-17
1.5236e-08
4.69508e-17
1.5236e-08
3.94559e-17
1.5236e-08
4.06872e-17
1.5236e-08
-1.63205e-17
1.5236e-08
4.71775e-18
1.5236e-08
-3.79221e-17
1.5236e-08
-4.36871e-18
1.5236e-08
-4.25968e-17
1.5236e-08
-6.0894e-18
1.5236e-08
-2.02962e-17
1.5236e-08
-7.23988e-18
1.5236e-08
-2.64611e-17
1.5236e-08
-1.58573e-17
1.5236e-08
-2.20495e-18
1.5236e-08
1.06598e-18
1.5236e-08
-1.0604e-17
1.5236e-08
-3.09055e-17
1.5236e-08
-1.39285e-17
1.5236e-08
1.6284e-18
1.5236e-08
-6.83025e-17
1.5236e-08
-1.21041e-17
1.5236e-08
-3.76755e-17
1.5236e-08
-1.13775e-17
1.5236e-08
-1.51588e-17
1.5236e-08
-2.93618e-17
1.5236e-08
8.11357e-17
1.5236e-08
-1.17011e-17
1.5236e-08
7.26568e-17
1.5236e-08
2.97408e-17
1.5236e-08
7.07026e-17
1.5236e-08
5.39973e-17
1.5236e-08
-1.27179e-17
1.5236e-08
2.80276e-17
1.5236e-08
-1.74835e-17
1.5236e-08
-3.54455e-18
1.5236e-08
-2.68966e-17
1.5236e-08
-9.48155e-18
1.5236e-08
1.62271e-17
1.5236e-08
1.06705e-17
1.5236e-08
-2.30795e-18
1.5236e-08
1.75449e-17
1.5236e-08
-3.90134e-18
1.5236e-08
1.73462e-17
1.5236e-08
-3.90141e-17
1.5236e-08
1.19686e-17
1.5236e-08
-3.71366e-17
1.5236e-08
1.00498e-17
1.5236e-08
-6.4336e-17
1.5236e-08
5.09819e-18
1.5236e-08
-1.67453e-17
1.5236e-08
-3.56015e-17
1.5236e-08
3.37299e-17
1.5236e-08
-6.29325e-17
1.5236e-08
1.20378e-16
1.5236e-08
-6.08215e-17
1.5236e-08
1.29924e-16
1.5236e-08
-5.96377e-17
1.5236e-08
1.49276e-16
1.5236e-08
-1.32575e-16
1.5236e-08
2.46638e-16
1.5236e-08
-4.08666e-16
1.5236e-08
6.67747e-16
1.5236e-08
-1.20442e-15
1.5236e-08
1.89279e-15
1.5236e-08
-3.27666e-15
1.5236e-08
5.21676e-15
1.5236e-08
-8.43846e-15
1.5236e-08
1.31837e-14
1.5236e-08
-2.0142e-14
1.5236e-08
3.00235e-14
1.5236e-08
-4.35919e-14
1.5236e-08
6.18011e-14
1.5236e-08
-8.54884e-14
1.5236e-08
1.15529e-13
1.5236e-08
-1.52504e-13
1.5236e-08
1.9664e-13
1.5236e-08
-2.47954e-13
1.5236e-08
3.05661e-13
1.5236e-08
-3.68894e-13
1.52359e-08
4.35726e-13
1.5236e-08
-5.03667e-13
1.52359e-08
5.69647e-13
1.5236e-08
-6.29699e-13
1.52359e-08
6.79929e-13
1.5236e-08
-7.15262e-13
1.52359e-08
7.31434e-13
1.5236e-08
-7.23085e-13
1.52359e-08
6.85784e-13
1.5236e-08
-6.14689e-13
1.52359e-08
5.06501e-13
1.5236e-08
-3.5754e-13
1.52359e-08
1.67208e-13
1.5236e-08
6.53991e-14
1.5236e-08
-3.34338e-13
1.52359e-08
6.32631e-13
1.5236e-08
-9.38577e-13
1.52359e-08
1.22652e-12
1.52361e-08
-1.44406e-12
1.52359e-08
1.53233e-12
1.5236e-08
-1.40298e-12
1.5236e-08
9.76654e-13
1.52359e-08
-1.86665e-13
1.52362e-08
-9.6477e-13
1.52356e-08
2.34734e-12
1.52363e-08
-3.68154e-12
1.52356e-08
4.4687e-12
1.52361e-08
-4.13801e-12
1.52362e-08
2.10273e-12
1.52352e-08
1.88305e-12
1.52373e-08
-7.56304e-12
1.52341e-08
1.40155e-11
1.52381e-08
-1.97578e-11
1.52338e-08
2.33672e-11
1.52378e-08
-2.37624e-11
1.52345e-08
2.11403e-11
1.52369e-08
-1.63333e-11
1.52354e-08
1.09404e-11
1.52363e-08
-5.96082e-12
1.52359e-08
1.95357e-12
1.52358e-08
1.11481e-12
1.52362e-08
-3.10099e-12
1.52357e-08
3.68739e-12
1.5236e-08
-2.84764e-12
1.5236e-08
1.37662e-12
1.52358e-08
-5.6261e-13
1.5236e-08
9.10543e-13
1.5236e-08
-2.28647e-12
1.52363e-08
2.19804e-12
1.5237e-08
-9.63564e-12
1.52397e-08
-5.08207e-12
-1.0584e-10
1.31425e-08
-3.80873e-09
1.35191e-08
-2.28952e-09
1.37954e-08
-1.63354e-09
1.40144e-08
-1.32957e-09
1.41964e-08
-1.08407e-09
1.43574e-08
-9.70044e-10
1.45044e-08
-8.79573e-10
1.464e-08
-8.13745e-10
1.47669e-08
-7.60504e-10
1.48865e-08
-7.18374e-10
1.50011e-08
-6.88458e-10
1.51112e-08
-6.60973e-10
1.52161e-08
-6.27053e-10
1.53133e-08
-5.78136e-10
1.54009e-08
-5.12923e-10
1.54773e-08
-4.29838e-10
1.55408e-08
-3.26286e-10
1.55888e-08
-2.0036e-10
1.56179e-08
-5.80891e-11
1.56261e-08
8.4858e-11
1.56138e-08
2.07809e-10
1.55846e-08
2.93789e-10
1.55443e-08
3.35532e-10
1.54992e-08
3.36321e-10
1.54551e-08
3.06564e-10
1.54157e-08
2.5913e-10
1.53831e-08
2.05624e-10
1.53578e-08
1.54463e-10
1.53391e-08
1.10508e-10
1.53259e-08
7.56399e-11
1.53171e-08
4.97101e-11
1.53114e-08
3.14584e-11
1.53079e-08
1.92169e-11
1.53058e-08
1.13555e-11
1.53045e-08
6.50313e-12
1.53038e-08
3.61517e-12
1.53034e-08
1.95363e-12
1.53032e-08
1.02778e-12
1.53031e-08
5.26756e-13
1.53031e-08
2.63721e-13
1.5303e-08
1.28629e-13
1.5303e-08
6.14831e-14
1.5303e-08
2.86026e-14
1.5303e-08
1.30699e-14
1.5303e-08
5.80268e-15
1.5303e-08
2.38295e-15
1.5303e-08
1.08607e-15
1.5303e-08
4.23096e-16
1.5303e-08
2.12672e-16
1.5303e-08
1.43038e-17
1.5303e-08
5.53438e-17
1.5303e-08
-1.03006e-16
1.5303e-08
-1.44965e-16
1.5303e-08
-1.795e-16
1.5303e-08
1.57534e-17
1.5303e-08
7.41265e-17
1.5303e-08
1.15233e-16
1.5303e-08
4.47986e-17
1.5303e-08
3.08058e-17
1.5303e-08
-1.35769e-17
1.5303e-08
2.7359e-17
1.5303e-08
-2.82097e-17
1.5303e-08
3.14302e-17
1.5303e-08
-3.46373e-17
1.5303e-08
3.62981e-17
1.5303e-08
7.1977e-18
1.5303e-08
6.43747e-17
1.5303e-08
7.18038e-17
1.5303e-08
5.97375e-17
1.5303e-08
5.51128e-17
1.5303e-08
4.6099e-17
1.5303e-08
5.01322e-17
1.5303e-08
-1.69363e-17
1.5303e-08
6.25359e-18
1.5303e-08
-4.24016e-17
1.5303e-08
-3.52696e-18
1.5303e-08
-4.91707e-17
1.5303e-08
-8.72907e-18
1.5303e-08
-2.31939e-17
1.5303e-08
-8.51338e-18
1.5303e-08
-3.05682e-17
1.5303e-08
-1.99296e-17
1.5303e-08
-3.23196e-18
1.5303e-08
7.78266e-19
1.5303e-08
-1.24331e-17
1.5303e-08
-3.43101e-17
1.5303e-08
-1.7085e-17
1.5303e-08
4.27206e-18
1.5303e-08
-7.88147e-17
1.5303e-08
-1.55465e-17
1.5303e-08
-4.27192e-17
1.5303e-08
-1.4659e-17
1.5303e-08
-1.62301e-17
1.5303e-08
-3.78756e-17
1.5303e-08
9.26789e-17
1.5303e-08
-1.41019e-17
1.5303e-08
8.09742e-17
1.5303e-08
3.34936e-17
1.5303e-08
8.10493e-17
1.5303e-08
6.5659e-17
1.5303e-08
-1.20222e-17
1.5303e-08
3.37379e-17
1.5303e-08
-1.69592e-17
1.5303e-08
-4.86274e-18
1.5303e-08
-3.03841e-17
1.5303e-08
-1.2625e-17
1.5303e-08
1.84857e-17
1.5303e-08
1.25009e-17
1.5303e-08
-3.15546e-18
1.5303e-08
1.95936e-17
1.5303e-08
-4.40836e-18
1.5303e-08
2.09924e-17
1.5303e-08
-4.54943e-17
1.5303e-08
1.50906e-17
1.5303e-08
-4.26423e-17
1.5303e-08
1.33242e-17
1.5303e-08
-7.46625e-17
1.5303e-08
4.1239e-18
1.5303e-08
-1.79486e-17
1.5303e-08
-4.29373e-17
1.5303e-08
3.97771e-17
1.5303e-08
-7.47211e-17
1.5303e-08
1.37462e-16
1.5303e-08
-6.8024e-17
1.5303e-08
1.44199e-16
1.5303e-08
-6.07971e-17
1.5303e-08
1.57896e-16
1.5303e-08
-1.25138e-16
1.5303e-08
2.35241e-16
1.5303e-08
-3.77423e-16
1.5303e-08
6.09291e-16
1.5303e-08
-1.10375e-15
1.5303e-08
1.70279e-15
1.5303e-08
-2.98939e-15
1.5303e-08
4.75178e-15
1.5303e-08
-7.76705e-15
1.5303e-08
1.22186e-14
1.5303e-08
-1.88172e-14
1.5303e-08
2.82712e-14
1.5303e-08
-4.13747e-14
1.5303e-08
5.91467e-14
1.5303e-08
-8.25133e-14
1.5303e-08
1.1249e-13
1.5303e-08
-1.4981e-13
1.5303e-08
1.94889e-13
1.5303e-08
-2.47967e-13
1.5303e-08
3.08462e-13
1.5303e-08
-3.75735e-13
1.5303e-08
4.47988e-13
1.5303e-08
-5.22765e-13
1.5303e-08
5.96962e-13
1.5303e-08
-6.66349e-13
1.5303e-08
7.26775e-13
1.5303e-08
-7.72484e-13
1.5303e-08
7.98677e-13
1.53031e-08
-7.98909e-13
1.5303e-08
7.67862e-13
1.53031e-08
-6.99347e-13
1.5303e-08
5.89047e-13
1.5303e-08
-4.31843e-13
1.5303e-08
2.26448e-13
1.5303e-08
2.90119e-14
1.5303e-08
-3.27957e-13
1.5303e-08
6.62563e-13
1.53031e-08
-1.00709e-12
1.5303e-08
1.331e-12
1.53031e-08
-1.5718e-12
1.5303e-08
1.65982e-12
1.5303e-08
-1.49165e-12
1.5303e-08
9.76977e-13
1.53029e-08
-4.45975e-14
1.53032e-08
-1.29117e-12
1.53027e-08
2.8601e-12
1.53033e-08
-4.31744e-12
1.53027e-08
5.06742e-12
1.53031e-08
-4.44946e-12
1.53033e-08
1.81358e-12
1.53022e-08
3.06102e-12
1.53044e-08
-9.78422e-12
1.53012e-08
1.7212e-11
1.5305e-08
-2.35877e-11
1.53011e-08
2.73317e-11
1.53046e-08
-2.73268e-11
1.53018e-08
2.39774e-11
1.53038e-08
-1.83602e-11
1.53025e-08
1.23014e-11
1.53033e-08
-6.82318e-12
1.53029e-08
2.40314e-12
1.53029e-08
1.07078e-12
1.53032e-08
-3.38033e-12
1.53028e-08
4.05806e-12
1.5303e-08
-3.02956e-12
1.53031e-08
1.25809e-12
1.53028e-08
-2.7398e-13
1.53031e-08
6.26464e-13
1.53029e-08
-2.10471e-12
1.53034e-08
1.76932e-12
1.53041e-08
-1.03781e-11
1.53064e-08
-7.35091e-12
-1.30873e-10
1.31448e-08
-4.45354e-09
1.35229e-08
-2.66759e-09
1.3799e-08
-1.90963e-09
1.40179e-08
-1.54846e-09
1.41998e-08
-1.26602e-09
1.43607e-08
-1.13098e-09
1.45078e-08
-1.02665e-09
1.46434e-08
-9.49334e-10
1.47704e-08
-8.87524e-10
1.489e-08
-8.37986e-10
1.50046e-08
-8.03027e-10
1.51146e-08
-7.71e-10
1.52193e-08