/*--------------------------------*- C++ -*----------------------------------*\
| =========                 |                                                 |
| \\      /  F ield         | OpenFOAM: The Open Source CFD Toolbox           |
|  \\    /   O peration     | Version:  2412                                  |
|   \\  /    A nd           | Website:  www.openfoam.com                      |
|    \\/     M anipulation  |                                                 |
\*---------------------------------------------------------------------------*/
FoamFile
{
    version     2.0;
    format      ascii;
    arch        "LSB;label=32;scalar=64";
    class       volVectorField;
    location    "100";
    object      U;
}
// * * * * * * * * * * * * * * * * * * * * * * * * * * * * * * * * * * * * * //

dimensions      [0 1 -1 0 0 0 0];

internalField   nonuniform List<vector> 
8000
(
(0.0500357 -4.09854e-05 0)
(0.0544515 -2.78968e-05 0)
(0.0540859 -1.65096e-05 0)
(0.0559562 -1.5629e-05 0)
(0.0562431 -1.15243e-05 0)
(0.0571853 -1.10318e-05 0)
(0.0576529 -9.60911e-06 0)
(0.0582927 -9.09922e-06 0)
(0.0587718 -8.39534e-06 0)
(0.0592863 -8.01939e-06 0)
(0.0597422 -7.65313e-06 0)
(0.0602003 -7.33211e-06 0)
(0.0606261 -6.86812e-06 0)
(0.061027 -6.21381e-06 0)
(0.0613803 -5.28824e-06 0)
(0.0616746 -4.04568e-06 0)
(0.0618871 -2.46513e-06 0)
(0.0619994 -6.37094e-07 0)
(0.0619982 1.22415e-06 0)
(0.0618875 2.83744e-06 0)
(0.0616878 3.9682e-06 0)
(0.0614324 4.51205e-06 0)
(0.0611573 4.5095e-06 0)
(0.060893 4.10026e-06 0)
(0.0606604 3.45803e-06 0)
(0.0604695 2.73869e-06 0)
(0.060322 2.05405e-06 0)
(0.0602138 1.46776e-06 0)
(0.0601381 1.00373e-06 0)
(0.0600873 6.59163e-07 0)
(0.0600545 4.16852e-07 0)
(0.0600342 2.5444e-07 0)
(0.0600219 1.502e-07 0)
(0.0600148 8.5914e-08 0)
(0.0600108 4.77004e-08 0)
(0.0600087 2.57417e-08 0)
(0.0600075 1.3519e-08 0)
(0.0600069 6.91664e-09 0)
(0.0600066 3.4492e-09 0)
(0.0600064 1.68273e-09 0)
(0.0600064 7.98096e-10 0)
(0.0600063 3.73125e-10 0)
(0.0600063 1.6836e-10 0)
(0.0600063 7.5046e-11 0)
(0.0600063 3.19176e-11 0)
(0.0600063 1.19761e-11 0)
(0.0600063 6.41161e-12 0)
(0.0600063 1.69683e-12 0)
(0.0600063 1.24472e-12 0)
(0.0600063 -7.71261e-13 0)
(0.0600063 -3.37601e-14 0)
(0.0600063 -2.34456e-12 0)
(0.0600063 -1.70203e-12 0)
(0.0600063 -1.30161e-12 0)
(0.0600063 1.4118e-12 0)
(0.0600063 1.23728e-12 0)
(0.0600063 1.52559e-12 0)
(0.0600063 1.4645e-13 0)
(0.0600063 9.15612e-14 0)
(0.0600063 -3.49683e-13 0)
(0.0600063 2.78698e-13 0)
(0.0600063 -3.01095e-13 0)
(0.0600063 3.03424e-13 0)
(0.0600063 -3.42214e-13 0)
(0.0600063 8.37011e-13 0)
(0.0600063 2.6639e-13 0)
(0.0600063 1.04486e-12 0)
(0.0600063 1.00571e-12 0)
(0.0600063 6.99756e-13 0)
(0.0600063 6.12448e-13 0)
(0.0600063 4.50854e-13 0)
(0.0600063 3.81324e-13 0)
(0.0600063 -4.37611e-13 0)
(0.0600063 -8.73576e-14 0)
(0.0600063 -8.16208e-13 0)
(0.0600063 -1.33096e-13 0)
(0.0600063 -5.21368e-13 0)
(0.0600063 4.90351e-14 0)
(0.0600063 -3.35548e-13 0)
(0.0600063 -8.44344e-14 0)
(0.0600063 -3.62829e-13 0)
(0.0600063 -1.27761e-13 0)
(0.0600063 1.76336e-14 0)
(0.0600063 9.75357e-14 0)
(0.0600063 -1.93413e-13 0)
(0.0600063 -6.26091e-13 0)
(0.0600063 -1.46438e-13 0)
(0.0600063 -2.45991e-13 0)
(0.0600063 -9.43615e-13 0)
(0.0600063 -1.14482e-13 0)
(0.0600063 -6.35743e-13 0)
(0.0600063 -2.16394e-14 0)
(0.0600063 -2.33694e-13 0)
(0.0600063 -2.36377e-14 0)
(0.0600063 1.25678e-12 0)
(0.0600063 -3.76311e-14 0)
(0.0600063 1.4441e-12 0)
(0.0600063 4.13931e-13 0)
(0.0600063 1.026e-12 0)
(0.0600063 4.2699e-13 0)
(0.0600063 -2.78602e-13 0)
(0.0600063 1.86565e-13 0)
(0.0600063 -5.62293e-13 0)
(0.0600063 -4.50797e-14 0)
(0.0600063 -3.13692e-13 0)
(0.0600063 -5.07954e-14 0)
(0.0600063 3.68701e-13 0)
(0.0600063 -3.21631e-14 0)
(0.0600063 2.07282e-13 0)
(0.0600063 4.05843e-14 0)
(0.0600063 2.03219e-14 0)
(0.0600063 -4.16954e-14 0)
(0.0600063 -3.11088e-13 0)
(0.0600063 -1.97166e-13 0)
(0.0600063 -3.94234e-13 0)
(0.0600063 -7.77104e-14 0)
(0.0600063 -5.1459e-13 0)
(0.0600063 -2.61828e-14 0)
(0.0600063 -3.02619e-13 0)
(0.0600063 -4.6932e-13 0)
(0.0600063 6.24657e-13 0)
(0.0600063 -8.44172e-13 0)
(0.0600063 1.82378e-12 0)
(0.0600063 -9.89426e-13 0)
(0.0600063 2.29426e-12 0)
(0.0600063 -1.14617e-12 0)
(0.0600063 2.39167e-12 0)
(0.0600063 -2.44641e-12 0)
(0.0600063 4.23936e-12 0)
(0.0600063 -7.45983e-12 0)
(0.0600063 1.15138e-11 0)
(0.0600063 -2.08658e-11 0)
(0.0600063 3.22862e-11 0)
(0.0600063 -5.39925e-11 0)
(0.0600063 8.28982e-11 0)
(0.0600064 -1.27593e-10 0)
(0.0600062 1.90111e-10 0)
(0.0600065 -2.74679e-10 0)
(0.060006 3.8551e-10 0)
(0.0600067 -5.23041e-10 0)
(0.0600057 6.86747e-10 0)
(0.0600072 -8.70548e-10 0)
(0.060005 1.06546e-09 0)
(0.0600082 -1.25617e-09 0)
(0.0600037 1.41912e-09 0)
(0.0600098 -1.52985e-09 0)
(0.0600017 1.5542e-09 0)
(0.0600124 -1.462e-09 0)
(0.0599986 1.21803e-09 0)
(0.0600161 -7.87066e-10 0)
(0.0599941 1.41658e-10 0)
(0.0600212 7.50788e-10 0)
(0.0599883 -1.90182e-09 0)
(0.0600278 3.33116e-09 0)
(0.0599811 -5.03079e-09 0)
(0.0600356 7.00239e-09 0)
(0.0599727 -9.22155e-09 0)
(0.0600444 1.16774e-08 0)
(0.0599635 -1.43303e-08 0)
(0.0600538 1.71618e-08 0)
(0.0599541 -2.01203e-08 0)
(0.0600632 2.31851e-08 0)
(0.0599449 -2.62694e-08 0)
(0.0600721 2.93115e-08 0)
(0.0599365 -3.21026e-08 0)
(0.0600799 3.44198e-08 0)
(0.0599294 -3.57393e-08 0)
(0.060086 3.54448e-08 0)
(0.0599244 -3.24871e-08 0)
(0.0600896 2.57751e-08 0)
(0.0599227 -1.4077e-08 0)
(0.0600889 -3.31067e-09 0)
(0.0599264 2.58945e-08 0)
(0.0600818 -5.13858e-08 0)
(0.0599371 7.43617e-08 0)
(0.0600681 -8.73052e-08 0)
(0.0599523 8.03417e-08 0)
(0.0600539 -4.57103e-08 0)
(0.0599619 -1.99689e-08 0)
(0.0600527 1.10591e-07 0)
(0.059952 -2.09877e-07 0)
(0.0600743 2.94961e-07 0)
(0.0599209 -3.41543e-07 0)
(0.0601098 3.38154e-07 0)
(0.0598871 -2.84808e-07 0)
(0.060136 2.01583e-07 0)
(0.0598714 -1.09327e-07 0)
(0.0601408 2.90681e-08 0)
(0.0598757 3.09347e-08 0)
(0.0601304 -6.74913e-08 0)
(0.0598893 8.03035e-08 0)
(0.0601162 -7.15637e-08 0)
(0.0599016 5.10662e-08 0)
(0.0601069 -3.68162e-08 0)
(0.059909 4.11177e-08 0)
(0.0600992 -6.99557e-08 0)
(0.0599197 9.31189e-08 0)
(0.060087 -2.62305e-07 0)
(0.0599491 2.91602e-07 0)
(0.0600571 -8.434e-07 0)
(0.0500342 -0.000124043 0)
(0.054453 -8.08511e-05 0)
(0.0540875 -5.14536e-05 0)
(0.0559583 -4.59419e-05 0)
(0.0562452 -3.51843e-05 0)
(0.0571873 -3.28163e-05 0)
(0.0576548 -2.90198e-05 0)
(0.058295 -2.72329e-05 0)
(0.0587744 -2.52489e-05 0)
(0.0592888 -2.402e-05 0)
(0.0597436 -2.29636e-05 0)
(0.0602013 -2.20168e-05 0)
(0.0606282 -2.07199e-05 0)
(0.0610332 -1.88727e-05 0)
(0.0613947 -1.62843e-05 0)
(0.061704 -1.28111e-05 0)
(0.0619413 -8.36286e-06 0)
(0.0620889 -3.11336e-06 0)
(0.0621311 2.3901e-06 0)
(0.0620653 7.34973e-06 0)
(0.0619051 1.10268e-05 0)
(0.0616786 1.30218e-05 0)
(0.0614197 1.3363e-05 0)
(0.0611604 1.24059e-05 0)
(0.0609244 1.06473e-05 0)
(0.0607252 8.56233e-06 0)
(0.0605674 6.51068e-06 0)
(0.0604491 4.71124e-06 0)
(0.0603645 3.2597e-06 0)
(0.0603068 2.16437e-06 0)
(0.0602689 1.38308e-06 0)
(0.0602449 8.52645e-07 0)
(0.0602303 5.08156e-07 0)
(0.0602217 2.93345e-07 0)
(0.0602168 1.64318e-07 0)
(0.0602141 8.94369e-08 0)
(0.0602126 4.736e-08 0)
(0.0602118 2.44267e-08 0)
(0.0602115 1.22779e-08 0)
(0.0602113 6.03543e-09 0)
(0.0602112 2.88667e-09 0)
(0.0602111 1.3583e-09 0)
(0.0602111 6.18731e-10 0)
(0.0602111 2.77852e-10 0)
(0.0602111 1.19851e-10 0)
(0.0602111 4.6511e-11 0)
(0.0602111 2.33747e-11 0)
(0.0602111 7.45835e-12 0)
(0.0602111 4.50549e-12 0)
(0.0602111 -1.85919e-12 0)
(0.0602111 5.63928e-14 0)
(0.0602111 -6.31464e-12 0)
(0.0602111 -5.25653e-12 0)
(0.0602111 -4.58961e-12 0)
(0.0602111 3.29821e-12 0)
(0.0602111 3.59449e-12 0)
(0.0602111 4.55325e-12 0)
(0.0602111 7.33482e-13 0)
(0.0602111 4.65022e-13 0)
(0.0602111 -8.54269e-13 0)
(0.0602111 9.18197e-13 0)
(0.0602111 -1.02129e-12 0)
(0.0602111 8.86906e-13 0)
(0.0602111 -1.08252e-12 0)
(0.0602111 2.31955e-12 0)
(0.0602111 6.51947e-13 0)
(0.0602111 2.95495e-12 0)
(0.0602111 2.9679e-12 0)
(0.0602111 2.12062e-12 0)
(0.0602111 1.74412e-12 0)
(0.0602111 1.49565e-12 0)
(0.0602111 1.36116e-12 0)
(0.0602111 -1.17057e-12 0)
(0.0602111 -2.50855e-13 0)
(0.0602111 -2.25286e-12 0)
(0.0602111 -3.32646e-13 0)
(0.0602111 -1.59623e-12 0)
(0.0602111 1.25944e-15 0)
(0.0602111 -9.60701e-13 0)
(0.0602111 -2.73522e-13 0)
(0.0602111 -1.13416e-12 0)
(0.0602111 -4.48516e-13 0)
(0.0602111 5.1812e-14 0)
(0.0602111 3.16498e-13 0)
(0.0602111 -5.97662e-13 0)
(0.0602111 -1.79037e-12 0)
(0.0602111 -4.7357e-13 0)
(0.0602111 -4.01343e-13 0)
(0.0602111 -2.87101e-12 0)
(0.0602111 -4.42432e-13 0)
(0.0602111 -1.8516e-12 0)
(0.0602111 -1.65685e-13 0)
(0.0602111 -6.93209e-13 0)
(0.0602111 -5.03007e-13 0)
(0.0602111 3.73606e-12 0)
(0.0602111 -1.06959e-13 0)
(0.0602111 4.01164e-12 0)
(0.0602111 1.27311e-12 0)
(0.0602111 3.01783e-12 0)
(0.0602111 1.66057e-12 0)
(0.0602111 -8.19672e-13 0)
(0.0602111 6.34814e-13 0)
(0.0602111 -1.49398e-12 0)
(0.0602111 -7.16011e-14 0)
(0.0602111 -1.0895e-12 0)
(0.0602111 -1.85071e-13 0)
(0.0602111 9.6836e-13 0)
(0.0602111 1.61233e-13 0)
(0.0602111 3.16118e-13 0)
(0.0602111 3.13833e-13 0)
(0.0602111 -1.14882e-13 0)
(0.0602111 2.8104e-13 0)
(0.0602111 -1.21638e-12 0)
(0.0602111 -2.6379e-13 0)
(0.0602111 -1.3332e-12 0)
(0.0602111 2.63085e-13 0)
(0.0602111 -1.87058e-12 0)
(0.0602111 1.72225e-14 0)
(0.0602111 -9.07056e-13 0)
(0.0602111 -1.39767e-12 0)
(0.0602111 1.65959e-12 0)
(0.0602111 -2.73157e-12 0)
(0.0602111 5.41476e-12 0)
(0.0602111 -2.89075e-12 0)
(0.0602111 6.72283e-12 0)
(0.0602111 -3.59928e-12 0)
(0.0602111 7.824e-12 0)
(0.0602111 -8.37057e-12 0)
(0.0602111 1.5021e-11 0)
(0.0602111 -2.63062e-11 0)
(0.0602111 4.23112e-11 0)
(0.0602111 -7.57509e-11 0)
(0.0602111 1.19956e-10 0)
(0.0602111 -2.01791e-10 0)
(0.060211 3.15535e-10 0)
(0.0602112 -4.93075e-10 0)
(0.0602109 7.47648e-10 0)
(0.0602113 -1.1032e-09 0)
(0.0602107 1.58517e-09 0)
(0.0602116 -2.21266e-09 0)
(0.0602103 3.0048e-09 0)
(0.0602122 -3.9669e-09 0)
(0.0602095 5.09805e-09 0)
(0.0602133 -6.37712e-09 0)
(0.0602081 7.75798e-09 0)
(0.0602151 -9.18626e-09 0)
(0.0602057 1.05725e-08 0)
(0.060218 -1.18305e-08 0)
(0.0602023 1.28436e-08 0)
(0.0602221 -1.3486e-08 0)
(0.0601975 1.36359e-08 0)
(0.0602276 -1.31482e-08 0)
(0.0601913 1.192e-08 0)
(0.0602345 -9.81953e-09 0)
(0.0601838 6.78338e-09 0)
(0.0602426 -2.71975e-09 0)
(0.0601751 -2.39311e-09 0)
(0.0602516 8.60262e-09 0)
(0.0601659 -1.58712e-08 0)
(0.060261 2.4202e-08 0)
(0.0601565 -3.3482e-08 0)
(0.0602703 4.3664e-08 0)
(0.0601475 -5.44657e-08 0)
(0.0602789 6.56454e-08 0)
(0.0601394 -7.64597e-08 0)
(0.0602862 8.60877e-08 0)
(0.0601329 -9.27302e-08 0)
(0.0602918 9.43104e-08 0)
(0.0601285 -8.74479e-08 0)
(0.0602946 6.87751e-08 0)
(0.0601277 -3.47534e-08 0)
(0.0602929 -1.61846e-08 0)
(0.0601324 8.14737e-08 0)
(0.0602848 -1.52818e-07 0)
(0.0601439 2.12419e-07 0)
(0.0602709 -2.36951e-07 0)
(0.0601583 1.9768e-07 0)
(0.0602588 -7.45163e-08 0)
(0.0601647 -1.37005e-07 0)
(0.0602615 4.12345e-07 0)
(0.0601508 -6.9798e-07 0)
(0.0602859 9.26173e-07 0)
(0.060119 -1.03058e-06 0)
(0.0603197 9.88536e-07 0)
(0.0600891 -8.1083e-07 0)
(0.0603412 5.61976e-07 0)
(0.0600777 -3.00811e-07 0)
(0.0603429 8.02527e-08 0)
(0.0600836 8.28514e-08 0)
(0.0603321 -1.81848e-07 0)
(0.0600969 2.14003e-07 0)
(0.0603187 -1.84796e-07 0)
(0.060108 1.24868e-07 0)
(0.0603105 -8.78902e-08 0)
(0.0601146 1.05821e-07 0)
(0.0603036 -1.89491e-07 0)
(0.0601239 2.46745e-07 0)
(0.0602943 -6.98722e-07 0)
(0.0601451 5.35276e-07 0)
(0.0603009 -2.95767e-06 0)
(0.0500332 -0.000208833 0)
(0.0544577 -0.000130362 0)
(0.0540916 -8.86307e-05 0)
(0.0559625 -7.50963e-05 0)
(0.0562494 -5.95522e-05 0)
(0.0571916 -5.42572e-05 0)
(0.0576589 -4.86482e-05 0)
(0.0582995 -4.52795e-05 0)
(0.0587791 -4.21738e-05 0)
(0.0592935 -3.9979e-05 0)
(0.0597477 -3.82798e-05 0)
(0.060205 -3.67062e-05 0)
(0.0606325 -3.46527e-05 0)
(0.0610397 -3.17016e-05 0)
(0.0614061 -2.76206e-05 0)
(0.0617256 -2.21763e-05 0)
(0.0619813 -1.5198e-05 0)
(0.0621578 -6.84455e-06 0)
(0.0622377 2.11752e-06 0)
(0.062214 1.04491e-05 0)
(0.0620939 1.68979e-05 0)
(0.0619001 2.06935e-05 0)
(0.0616639 2.17533e-05 0)
(0.0614169 2.05697e-05 0)
(0.0611849 1.79219e-05 0)
(0.0609841 1.45996e-05 0)
(0.0608216 1.12282e-05 0)
(0.0606974 8.20839e-06 0)
(0.0606073 5.73262e-06 0)
(0.0605448 3.83931e-06 0)
(0.0605033 2.47325e-06 0)
(0.0604767 1.53634e-06 0)
(0.0604603 9.22253e-07 0)
(0.0604506 5.36062e-07 0)
(0.060445 3.0225e-07 0)
(0.0604418 1.65551e-07 0)
(0.0604401 8.81976e-08 0)
(0.0604392 4.5759e-08 0)
(0.0604387 2.31336e-08 0)
(0.0604385 1.14339e-08 0)
(0.0604384 5.50132e-09 0)
(0.0604383 2.6009e-09 0)
(0.0604383 1.19253e-09 0)
(0.0604383 5.3849e-10 0)
(0.0604383 2.34246e-10 0)
(0.0604383 9.29243e-11 0)
(0.0604383 4.48599e-11 0)
(0.0604383 1.57629e-11 0)
(0.0604383 8.59546e-12 0)
(0.0604383 -2.20763e-12 0)
(0.0604383 3.95363e-13 0)
(0.0604383 -9.4516e-12 0)
(0.0604383 -8.86432e-12 0)
(0.0604383 -8.35891e-12 0)
(0.0604383 4.17333e-12 0)
(0.0604383 5.7128e-12 0)
(0.0604383 7.38147e-12 0)
(0.0604383 1.66115e-12 0)
(0.0604383 1.02873e-12 0)
(0.0604383 -1.17514e-12 0)
(0.0604383 1.60335e-12 0)
(0.0604383 -1.77728e-12 0)
(0.0604383 1.46312e-12 0)
(0.0604383 -1.9127e-12 0)
(0.0604383 3.48728e-12 0)
(0.0604383 9.32811e-13 0)
(0.0604383 4.6427e-12 0)
(0.0604383 4.74273e-12 0)
(0.0604383 3.56483e-12 0)
(0.0604383 2.84156e-12 0)
(0.0604383 2.63695e-12 0)
(0.0604383 2.47412e-12 0)
(0.0604383 -1.66401e-12 0)
(0.0604383 -3.15916e-13 0)
(0.0604383 -3.42851e-12 0)
(0.0604383 -4.78671e-13 0)
(0.0604383 -2.71628e-12 0)
(0.0604383 -1.45917e-13 0)
(0.0604383 -1.53717e-12 0)
(0.0604383 -4.76777e-13 0)
(0.0604383 -1.86694e-12 0)
(0.0604383 -8.4285e-13 0)
(0.0604383 8.95578e-16 0)
(0.0604383 4.38304e-13 0)
(0.0604383 -9.47224e-13 0)
(0.0604383 -2.68586e-12 0)
(0.0604383 -8.69064e-13 0)
(0.0604383 -3.23028e-13 0)
(0.0604383 -4.76888e-12 0)
(0.0604383 -8.18194e-13 0)
(0.0604383 -2.98074e-12 0)
(0.0604383 -4.53046e-13 0)
(0.0604383 -1.08089e-12 0)
(0.0604383 -1.32655e-12 0)
(0.0604383 6.03492e-12 0)
(0.0604383 -2.6124e-13 0)
(0.0604383 6.20188e-12 0)
(0.0604383 2.13096e-12 0)
(0.0604383 4.89821e-12 0)
(0.0604383 3.17652e-12 0)
(0.0604383 -1.19154e-12 0)
(0.0604383 1.28193e-12 0)
(0.0604383 -2.20823e-12 0)
(0.0604383 -1.40316e-13 0)
(0.0604383 -1.97555e-12 0)
(0.0604383 -2.74614e-13 0)
(0.0604383 1.33345e-12 0)
(0.0604383 6.6818e-13 0)
(0.0604383 1.88083e-13 0)
(0.0604383 8.96983e-13 0)
(0.0604383 -5.21326e-13 0)
(0.0604383 9.24926e-13 0)
(0.0604383 -2.43114e-12 0)
(0.0604383 1.41174e-13 0)
(0.0604383 -2.51279e-12 0)
(0.0604383 1.02153e-12 0)
(0.0604383 -3.58229e-12 0)
(0.0604383 3.41139e-13 0)
(0.0604383 -1.56261e-12 0)
(0.0604383 -2.19466e-12 0)
(0.0604383 2.49636e-12 0)
(0.0604383 -4.53569e-12 0)
(0.0604383 8.71379e-12 0)
(0.0604383 -4.5741e-12 0)
(0.0604383 1.06659e-11 0)
(0.0604383 -5.63653e-12 0)
(0.0604383 1.26917e-11 0)
(0.0604383 -1.35124e-11 0)
(0.0604383 2.4675e-11 0)
(0.0604383 -4.27938e-11 0)
(0.0604383 7.02417e-11 0)
(0.0604383 -1.26108e-10 0)
(0.0604382 2.01992e-10 0)
(0.0604383 -3.43586e-10 0)
(0.0604382 5.44785e-10 0)
(0.0604384 -8.6437e-10 0)
(0.0604381 1.33156e-09 0)
(0.0604385 -1.99955e-09 0)
(0.0604379 2.92732e-09 0)
(0.0604388 -4.17116e-09 0)
(0.0604374 5.79365e-09 0)
(0.0604395 -7.84077e-09 0)
(0.0604365 1.03535e-08 0)
(0.0604407 -1.33404e-08 0)
(0.0604349 1.67706e-08 0)
(0.0604428 -2.05923e-08 0)
(0.0604323 2.46885e-08 0)
(0.0604459 -2.89344e-08 0)
(0.0604286 3.31338e-08 0)
(0.0604503 -3.70589e-08 0)
(0.0604234 4.04591e-08 0)
(0.0604562 -4.3031e-08 0)
(0.0604168 4.45049e-08 0)
(0.0604635 -4.4556e-08 0)
(0.0604089 4.29416e-08 0)
(0.0604719 -3.93746e-08 0)
(0.0604 3.36619e-08 0)
(0.0604812 -2.55942e-08 0)
(0.0603905 1.5089e-08 0)
(0.0604907 -2.03966e-09 0)
(0.0603811 -1.34574e-08 0)
(0.0605 3.13582e-08 0)
(0.0603722 -5.11915e-08 0)
(0.0605083 7.24848e-08 0)
(0.0603645 -9.38611e-08 0)
(0.0605154 1.13751e-07 0)
(0.0603583 -1.28866e-07 0)
(0.0605205 1.35461e-07 0)
(0.0603545 -1.27626e-07 0)
(0.0605226 9.96855e-08 0)
(0.0603545 -4.60205e-08 0)
(0.06052 -3.51805e-08 0)
(0.0603601 1.38189e-07 0)
(0.0605112 -2.47374e-07 0)
(0.0603719 3.31383e-07 0)
(0.0604975 -3.5089e-07 0)
(0.0603853 2.60036e-07 0)
(0.0604874 -3.04206e-08 0)
(0.0603888 -3.37332e-07 0)
(0.0604934 7.944e-07 0)
(0.0603722 -1.24665e-06 0)
(0.0605192 1.58472e-06 0)
(0.0603409 -1.7091e-06 0)
(0.0605504 1.59905e-06 0)
(0.0603149 -1.28647e-06 0)
(0.0605676 8.81995e-07 0)
(0.0603072 -4.75665e-07 0)
(0.060567 1.39665e-07 0)
(0.0603138 1.09032e-07 0)
(0.0605564 -2.61969e-07 0)
(0.0603265 3.10415e-07 0)
(0.060544 -2.60371e-07 0)
(0.0603366 1.6332e-07 0)
(0.0605369 -1.07357e-07 0)
(0.0603421 1.38887e-07 0)
(0.0605312 -2.66021e-07 0)
(0.0603494 3.28188e-07 0)
(0.0605257 -9.66648e-07 0)
(0.0603629 2.67949e-07 0)
(0.0605464 -5.83673e-06 0)
(0.0500326 -0.000294086 0)
(0.0544655 -0.000179994 0)
(0.0540983 -0.000125674 0)
(0.0559691 -0.000104244 0)
(0.0562559 -8.3875e-05 0)
(0.0571981 -7.56916e-05 0)
(0.0576654 -6.82627e-05 0)
(0.0583062 -6.33292e-05 0)
(0.0587861 -5.9094e-05 0)
(0.0593005 -5.59246e-05 0)
(0.0597544 -5.35767e-05 0)
(0.0602114 -5.13937e-05 0)
(0.0606391 -4.86186e-05 0)
(0.0610474 -4.46236e-05 0)
(0.0614165 -3.91649e-05 0)
(0.0617422 -3.19593e-05 0)
(0.0620109 -2.27544e-05 0)
(0.0622098 -1.16258e-05 0)
(0.0623217 5.49647e-07 0)
(0.0623361 1.21786e-05 0)
(0.0622553 2.1515e-05 0)
(0.0620965 2.73694e-05 0)
(0.0618876 2.94663e-05 0)
(0.0616594 2.83581e-05 0)
(0.0614381 2.5059e-05 0)
(0.061242 2.06571e-05 0)
(0.0610802 1.6051e-05 0)
(0.0609547 1.18413e-05 0)
(0.0608623 8.33785e-06 0)
(0.0607975 5.62614e-06 0)
(0.0607539 3.64955e-06 0)
(0.0607258 2.2818e-06 0)
(0.0607083 1.37816e-06 0)
(0.0606977 8.05733e-07 0)
(0.0606916 4.56819e-07 0)
(0.0606882 2.51539e-07 0)
(0.0606863 1.3469e-07 0)
(0.0606853 7.02257e-08 0)
(0.0606847 3.56749e-08 0)
(0.0606845 1.77132e-08 0)
(0.0606844 8.56479e-09 0)
(0.0606843 4.06534e-09 0)
(0.0606843 1.87409e-09 0)
(0.0606842 8.49873e-10 0)
(0.0606842 3.72467e-10 0)
(0.0606842 1.49922e-10 0)
(0.0606842 7.06667e-11 0)
(0.0606842 2.61033e-11 0)
(0.0606842 1.35503e-11 0)
(0.0606842 -2.07564e-12 0)
(0.0606842 1.13843e-12 0)
(0.0606842 -1.18569e-11 0)
(0.0606842 -1.21683e-11 0)
(0.0606842 -1.24684e-11 0)
(0.0606842 4.27908e-12 0)
(0.0606842 7.41009e-12 0)
(0.0606842 1.00011e-11 0)
(0.0606842 2.78198e-12 0)
(0.0606842 1.7923e-12 0)
(0.0606842 -1.34759e-12 0)
(0.0606842 2.31743e-12 0)
(0.0606842 -2.521e-12 0)
(0.0606842 2.04351e-12 0)
(0.0606842 -2.70715e-12 0)
(0.0606842 4.36385e-12 0)
(0.0606842 1.12753e-12 0)
(0.0606842 6.05035e-12 0)
(0.0606842 6.36787e-12 0)
(0.0606842 4.94341e-12 0)
(0.0606842 3.98037e-12 0)
(0.0606842 3.74551e-12 0)
(0.0606842 3.7226e-12 0)
(0.0606842 -2.00306e-12 0)
(0.0606842 -2.56853e-13 0)
(0.0606842 -4.3786e-12 0)
(0.0606842 -5.2966e-13 0)
(0.0606842 -3.81726e-12 0)
(0.0606842 -3.84092e-13 0)
(0.0606842 -2.07331e-12 0)
(0.0606842 -6.93634e-13 0)
(0.0606842 -2.55044e-12 0)
(0.0606842 -1.29619e-12 0)
(0.0606842 -6.64833e-14 0)
(0.0606842 4.55044e-13 0)
(0.0606842 -1.24659e-12 0)
(0.0606842 -3.41203e-12 0)
(0.0606842 -1.28394e-12 0)
(0.0606842 -9.33446e-14 0)
(0.0606842 -6.56164e-12 0)
(0.0606842 -1.23662e-12 0)
(0.0606842 -3.98599e-12 0)
(0.0606842 -8.40648e-13 0)
(0.0606842 -1.3957e-12 0)
(0.0606842 -2.37556e-12 0)
(0.0606842 8.13361e-12 0)
(0.0606842 -4.92716e-13 0)
(0.0606842 8.01841e-12 0)
(0.0606842 2.91335e-12 0)
(0.0606842 6.66016e-12 0)
(0.0606842 4.82003e-12 0)
(0.0606842 -1.41336e-12 0)
(0.0606842 2.0272e-12 0)
(0.0606842 -2.62135e-12 0)
(0.0606842 -2.79073e-13 0)
(0.0606842 -2.74536e-12 0)
(0.0606842 -5.13424e-13 0)
(0.0606842 1.68382e-12 0)
(0.0606842 1.12963e-12 0)
(0.0606842 2.64304e-14 0)
(0.0606842 1.40901e-12 0)
(0.0606842 -8.11687e-13 0)
(0.0606842 1.55039e-12 0)
(0.0606842 -3.56916e-12 0)
(0.0606842 6.15819e-13 0)
(0.0606842 -3.55324e-12 0)
(0.0606842 1.71845e-12 0)
(0.0606842 -5.28702e-12 0)
(0.0606842 5.15791e-13 0)
(0.0606842 -2.04643e-12 0)
(0.0606842 -3.1317e-12 0)
(0.0606842 3.31827e-12 0)
(0.0606842 -6.35798e-12 0)
(0.0606842 1.17492e-11 0)
(0.0606842 -6.02545e-12 0)
(0.0606842 1.39023e-11 0)
(0.0606842 -6.92059e-12 0)
(0.0606842 1.62297e-11 0)
(0.0606842 -1.6334e-11 0)
(0.0606842 3.01616e-11 0)
(0.0606842 -5.14091e-11 0)
(0.0606842 8.47361e-11 0)
(0.0606842 -1.52644e-10 0)
(0.0606842 2.43888e-10 0)
(0.0606843 -4.18646e-10 0)
(0.0606842 6.66725e-10 0)
(0.0606843 -1.06727e-09 0)
(0.0606841 1.65749e-09 0)
(0.0606845 -2.51158e-09 0)
(0.0606838 3.71099e-09 0)
(0.0606849 -5.33972e-09 0)
(0.0606833 7.4945e-09 0)
(0.0606856 -1.02549e-08 0)
(0.0606823 1.37001e-08 0)
(0.0606869 -1.7869e-08 0)
(0.0606806 2.27532e-08 0)
(0.0606891 -2.83167e-08 0)
(0.0606778 3.44355e-08 0)
(0.0606925 -4.09717e-08 0)
(0.0606738 4.76803e-08 0)
(0.0606972 -5.42662e-08 0)
(0.0606683 6.03856e-08 0)
(0.0607035 -6.56132e-08 0)
(0.0606613 6.95447e-08 0)
(0.0607112 -7.16901e-08 0)
(0.060653 7.16468e-08 0)
(0.06072 -6.89424e-08 0)
(0.0606437 6.32116e-08 0)
(0.0607296 -5.40743e-08 0)
(0.060634 4.13047e-08 0)
(0.0607393 -2.46649e-08 0)
(0.0606244 4.19851e-09 0)
(0.0607486 2.00857e-08 0)
(0.0606156 -4.75598e-08 0)
(0.0607569 7.75356e-08 0)
(0.060608 -1.08004e-07 0)
(0.0607636 1.36627e-07 0)
(0.0606022 -1.58595e-07 0)
(0.0607683 1.68475e-07 0)
(0.0605989 -1.5788e-07 0)
(0.0607698 1.19003e-07 0)
(0.0605995 -4.45833e-08 0)
(0.0607666 -6.6737e-08 0)
(0.0606057 2.05044e-07 0)
(0.0607574 -3.46365e-07 0)
(0.0606176 4.45155e-07 0)
(0.0607442 -4.46563e-07 0)
(0.0606297 2.8987e-07 0)
(0.0607361 5.76e-08 0)
(0.0606308 -5.84714e-07 0)
(0.0607444 1.2142e-06 0)
(0.0606126 -1.80991e-06 0)
(0.0607705 2.22577e-06 0)
(0.0605828 -2.33804e-06 0)
(0.0607985 2.13913e-06 0)
(0.0605609 -1.68942e-06 0)
(0.0608118 1.14424e-06 0)
(0.060556 -6.17126e-07 0)
(0.0608098 1.88251e-07 0)
(0.0605629 1.31341e-07 0)
(0.0607997 -3.31058e-07 0)
(0.0605747 3.92323e-07 0)
(0.0607883 -3.19271e-07 0)
(0.0605837 1.84441e-07 0)
(0.0607822 -1.09095e-07 0)
(0.0605881 1.49559e-07 0)
(0.0607779 -3.05908e-07 0)
(0.0605933 3.46106e-07 0)
(0.0607757 -1.12857e-06 0)
(0.060602 -1.33398e-07 0)
(0.0607994 -9.07056e-06 0)
(0.050032 -0.000379416 0)
(0.0544765 -0.000229967 0)
(0.0541077 -0.00016255 0)
(0.055978 -0.000133462 0)
(0.0562648 -0.000108148 0)
(0.0572069 -9.71482e-05 0)
(0.0576742 -8.78654e-05 0)
(0.0583152 -8.13921e-05 0)
(0.0587953 -7.60147e-05 0)
(0.0593098 -7.1869e-05 0)
(0.0597635 -6.88635e-05 0)
(0.0602203 -6.6079e-05 0)
(0.0606481 -6.25957e-05 0)
(0.0610568 -5.75829e-05 0)
(0.0614269 -5.08096e-05 0)
(0.0617559 -4.19884e-05 0)
(0.062033 -3.08035e-05 0)
(0.0622483 -1.72084e-05 0)
(0.062386 -2.10039e-06 0)
(0.0624339 1.26644e-05 0)
(0.06239 2.48911e-05 0)
(0.062267 3.29541e-05 0)
(0.0620889 3.63265e-05 0)
(0.0618844 3.55535e-05 0)
(0.0616798 3.18336e-05 0)
(0.0614942 2.65279e-05 0)
(0.0613384 2.08042e-05 0)
(0.0612157 1.54724e-05 0)
(0.0611243 1.09734e-05 0)
(0.0610596 7.45296e-06 0)
(0.0610156 4.86363e-06 0)
(0.060987 3.05789e-06 0)
(0.0609691 1.85662e-06 0)
(0.0609583 1.09086e-06 0)
(0.0609519 6.21398e-07 0)
(0.0609483 3.43708e-07 0)
(0.0609463 1.84841e-07 0)
(0.0609453 9.67789e-08 0)
(0.0609447 4.93667e-08 0)
(0.0609444 2.46071e-08 0)
(0.0609443 1.19482e-08 0)
(0.0609442 5.69086e-09 0)
(0.0609442 2.63531e-09 0)
(0.0609442 1.19942e-09 0)
(0.0609442 5.28885e-10 0)
(0.0609442 2.15193e-10 0)
(0.0609442 9.98675e-11 0)
(0.0609442 3.79912e-11 0)
(0.0609442 1.91852e-11 0)
(0.0609442 -1.51565e-12 0)
(0.0609442 2.24399e-12 0)
(0.0609442 -1.36141e-11 0)
(0.0609442 -1.50478e-11 0)
(0.0609442 -1.66661e-11 0)
(0.0609442 3.79655e-12 0)
(0.0609442 8.67705e-12 0)
(0.0609442 1.23873e-11 0)
(0.0609442 3.98886e-12 0)
(0.0609442 2.65262e-12 0)
(0.0609442 -1.43911e-12 0)
(0.0609442 3.05641e-12 0)
(0.0609442 -3.19414e-12 0)
(0.0609442 2.62434e-12 0)
(0.0609442 -3.41823e-12 0)
(0.0609442 5.0122e-12 0)
(0.0609442 1.23625e-12 0)
(0.0609442 7.22334e-12 0)
(0.0609442 7.83854e-12 0)
(0.0609442 6.24275e-12 0)
(0.0609442 5.12669e-12 0)
(0.0609442 4.76009e-12 0)
(0.0609442 5.02481e-12 0)
(0.0609442 -2.21751e-12 0)
(0.0609442 -1.17336e-13 0)
(0.0609442 -5.16258e-12 0)
(0.0609442 -4.90309e-13 0)
(0.0609442 -4.82987e-12 0)
(0.0609442 -6.82998e-13 0)
(0.0609442 -2.57601e-12 0)
(0.0609442 -9.11483e-13 0)
(0.0609442 -3.17729e-12 0)
(0.0609442 -1.78396e-12 0)
(0.0609442 -1.52455e-13 0)
(0.0609442 4.13091e-13 0)
(0.0609442 -1.51946e-12 0)
(0.0609442 -4.01626e-12 0)
(0.0609442 -1.72045e-12 0)
(0.0609442 2.23841e-13 0)
(0.0609442 -8.19488e-12 0)
(0.0609442 -1.67651e-12 0)
(0.0609442 -4.87153e-12 0)
(0.0609442 -1.28323e-12 0)
(0.0609442 -1.63095e-12 0)
(0.0609442 -3.51625e-12 0)
(0.0609442 1.00069e-11 0)
(0.0609442 -7.65394e-13 0)
(0.0609442 9.52624e-12 0)
(0.0609442 3.58536e-12 0)
(0.0609442 8.26741e-12 0)
(0.0609442 6.46634e-12 0)
(0.0609442 -1.49492e-12 0)
(0.0609442 2.80767e-12 0)
(0.0609442 -2.80735e-12 0)
(0.0609442 -4.48367e-13 0)
(0.0609442 -3.36336e-12 0)
(0.0609442 -8.55641e-13 0)
(0.0609442 2.01583e-12 0)
(0.0609442 1.4953e-12 0)
(0.0609442 -1.37574e-13 0)
(0.0609442 1.8108e-12 0)
(0.0609442 -9.97316e-13 0)
(0.0609442 2.12125e-12 0)
(0.0609442 -4.58855e-12 0)
(0.0609442 1.1085e-12 0)
(0.0609442 -4.45552e-12 0)
(0.0609442 2.31605e-12 0)
(0.0609442 -6.87565e-12 0)
(0.0609442 5.31172e-13 0)
(0.0609442 -2.41258e-12 0)
(0.0609442 -4.16644e-12 0)
(0.0609442 4.14069e-12 0)
(0.0609442 -8.1354e-12 0)
(0.0609442 1.4467e-11 0)
(0.0609442 -7.267e-12 0)
(0.0609442 1.65434e-11 0)
(0.0609442 -7.61584e-12 0)
(0.0609442 1.86463e-11 0)
(0.0609442 -1.73052e-11 0)
(0.0609442 3.22496e-11 0)
(0.0609442 -5.3658e-11 0)
(0.0609441 8.81869e-11 0)
(0.0609442 -1.59491e-10 0)
(0.0609441 2.52503e-10 0)
(0.0609442 -4.37756e-10 0)
(0.0609441 6.97911e-10 0)
(0.0609443 -1.12612e-09 0)
(0.060944 1.76022e-09 0)
(0.0609444 -2.68685e-09 0)
(0.0609437 3.99894e-09 0)
(0.0609448 -5.79764e-09 0)
(0.0609431 8.20264e-09 0)
(0.0609456 -1.13176e-08 0)
(0.0609421 1.52522e-08 0)
(0.060947 -2.00726e-08 0)
(0.0609402 2.57961e-08 0)
(0.0609494 -3.24102e-08 0)
(0.0609373 3.98012e-08 0)
(0.060953 -4.78403e-08 0)
(0.060933 5.6264e-08 0)
(0.060958 -6.47433e-08 0)
(0.0609272 7.28806e-08 0)
(0.0609646 -8.01678e-08 0)
(0.0609198 8.61072e-08 0)
(0.0609727 -9.00767e-08 0)
(0.0609111 9.1547e-08 0)
(0.0609819 -8.98772e-08 0)
(0.0609014 8.45459e-08 0)
(0.0609919 -7.49985e-08 0)
(0.0608914 6.08586e-08 0)
(0.0610019 -4.17324e-08 0)
(0.0608816 1.75846e-08 0)
(0.0610113 1.16466e-08 0)
(0.0608727 -4.52108e-08 0)
(0.0610196 8.2235e-08 0)
(0.0608652 -1.20106e-07 0)
(0.0610261 1.55738e-07 0)
(0.0608597 -1.82835e-07 0)
(0.0610304 1.9433e-07 0)
(0.0608568 -1.79502e-07 0)
(0.0610315 1.28658e-07 0)
(0.060858 -3.33421e-08 0)
(0.0610278 -1.06764e-07 0)
(0.0608645 2.76847e-07 0)
(0.0610185 -4.44086e-07 0)
(0.0608761 5.48803e-07 0)
(0.0610061 -5.21724e-07 0)
(0.0608869 2.89836e-07 0)
(0.0609997 1.80209e-07 0)
(0.0608861 -8.6273e-07 0)
(0.0610096 1.65003e-06 0)
(0.0608673 -2.36483e-06 0)
(0.0610347 2.83045e-06 0)
(0.06084 -2.9075e-06 0)
(0.0610592 2.60973e-06 0)
(0.060822 -2.02987e-06 0)
(0.0610691 1.36354e-06 0)
(0.0608192 -7.39359e-07 0)
(0.0610664 2.36144e-07 0)
(0.0608258 1.44509e-07 0)
(0.061057 -3.87608e-07 0)
(0.0608368 4.60531e-07 0)
(0.0610465 -3.63323e-07 0)
(0.0608449 1.89811e-07 0)
(0.0610413 -9.35169e-08 0)
(0.0608483 1.37915e-07 0)
(0.0610383 -3.12791e-07 0)
(0.0608517 3.17706e-07 0)
(0.0610383 -1.23824e-06 0)
(0.0608584 -5.20672e-07 0)
(0.0610602 -1.24361e-05 0)
(0.0500313 -0.000464936 0)
(0.0544905 -0.000280109 0)
(0.0541198 -0.00019939 0)
(0.0559894 -0.000162679 0)
(0.056276 -0.000132413 0)
(0.0572181 -0.000118608 0)
(0.0576854 -0.00010747 0)
(0.0583265 -9.94623e-05 0)
(0.0588068 -9.29409e-05 0)
(0.0593215 -8.78147e-05 0)
(0.0597751 -8.41461e-05 0)
(0.0602317 -8.07612e-05 0)
(0.0606594 -7.65736e-05 0)
(0.0610679 -7.05498e-05 0)
(0.061438 -6.24921e-05 0)
(0.0617679 -5.21511e-05 0)
(0.0620495 -3.91794e-05 0)
(0.0622759 -2.33928e-05 0)
(0.0624332 -5.64096e-06 0)
(0.0625092 1.2044e-05 0)
(0.0624991 2.7078e-05 0)
(0.0624112 3.74073e-05 0)
(0.0622658 4.2217e-05 0)
(0.0620889 4.1991e-05 0)
(0.0619059 3.80625e-05 0)
(0.0617359 3.2035e-05 0)
(0.0615908 2.5333e-05 0)
(0.061475 1.89761e-05 0)
(0.0613878 1.35435e-05 0)
(0.0613254 9.25081e-06 0)
(0.0612828 6.06817e-06 0)
(0.0612548 3.83353e-06 0)
(0.0612372 2.33803e-06 0)
(0.0612265 1.37955e-06 0)
(0.0612201 7.89027e-07 0)
(0.0612165 4.38114e-07 0)
(0.0612145 2.36484e-07 0)
(0.0612135 1.24263e-07 0)
(0.0612129 6.36104e-08 0)
(0.0612126 3.18131e-08 0)
(0.0612125 1.55025e-08 0)
(0.0612124 7.406e-09 0)
(0.0612124 3.44259e-09 0)
(0.0612123 1.57181e-09 0)
(0.0612123 6.96535e-10 0)
(0.0612123 2.85798e-10 0)
(0.0612123 1.31248e-10 0)
(0.0612123 5.08822e-11 0)
(0.0612123 2.5248e-11 0)
(0.0612123 -6.09907e-13 0)
(0.0612123 3.63755e-12 0)
(0.0612123 -1.48195e-11 0)
(0.0612123 -1.74829e-11 0)
(0.0612123 -2.07629e-11 0)
(0.0612123 2.90934e-12 0)
(0.0612123 9.5811e-12 0)
(0.0612123 1.45227e-11 0)
(0.0612123 5.18823e-12 0)
(0.0612123 3.51594e-12 0)
(0.0612123 -1.49866e-12 0)
(0.0612123 3.80232e-12 0)
(0.0612123 -3.78159e-12 0)
(0.0612123 3.18767e-12 0)
(0.0612123 -4.02057e-12 0)
(0.0612123 5.49139e-12 0)
(0.0612123 1.26482e-12 0)
(0.0612123 8.20671e-12 0)
(0.0612123 9.15465e-12 0)
(0.0612123 7.4368e-12 0)
(0.0612123 6.23399e-12 0)
(0.0612123 5.66311e-12 0)
(0.0612123 6.31194e-12 0)
(0.0612123 -2.34064e-12 0)
(0.0612123 5.96947e-14 0)
(0.0612123 -5.81762e-12 0)
(0.0612123 -3.67969e-13 0)
(0.0612123 -5.72143e-12 0)
(0.0612123 -1.01723e-12 0)
(0.0612123 -3.03451e-12 0)
(0.0612123 -1.1165e-12 0)
(0.0612123 -3.74619e-12 0)
(0.0612123 -2.29278e-12 0)
(0.0612123 -2.55391e-13 0)
(0.0612123 3.45323e-13 0)
(0.0612123 -1.79239e-12 0)
(0.0612123 -4.53515e-12 0)
(0.0612123 -2.15893e-12 0)
(0.0612123 5.86269e-13 0)
(0.0612123 -9.65364e-12 0)
(0.0612123 -2.12539e-12 0)
(0.0612123 -5.63266e-12 0)
(0.0612123 -1.73966e-12 0)
(0.0612123 -1.79612e-12 0)
(0.0612123 -4.65424e-12 0)
(0.0612123 1.16636e-11 0)
(0.0612123 -1.05202e-12 0)
(0.0612123 1.07682e-11 0)
(0.0612123 4.13226e-12 0)
(0.0612123 9.70033e-12 0)
(0.0612123 8.04048e-12 0)
(0.0612123 -1.47108e-12 0)
(0.0612123 3.5746e-12 0)
(0.0612123 -2.82558e-12 0)
(0.0612123 -6.21523e-13 0)
(0.0612123 -3.84024e-12 0)
(0.0612123 -1.24355e-12 0)