/*--------------------------------*- C++ -*----------------------------------*\
| =========                 |                                                 |
| \\      /  F ield         | OpenFOAM: The Open Source CFD Toolbox           |
|  \\    /   O peration     | Version:  2412                                  |
|   \\  /    A nd           | Website:  www.openfoam.com                      |
|    \\/     M anipulation  |                                                 |
\*---------------------------------------------------------------------------*/
FoamFile
{
    version     2.0;
    format      ascii;
    arch        "LSB;label=32;scalar=64";
    class       volScalarField;
    location    "700";
    object      p;
}
// * * * * * * * * * * * * * * * * * * * * * * * * * * * * * * * * * * * * * //

dimensions      [0 2 -2 0 0 0 0];

internalField   nonuniform List<scalar> 
8000
(
0.00307169
0.00283704
0.00285888
0.00275485
0.00273969
0.00268603
0.00265981
0.00262279
0.00259509
0.00256477
0.00253811
0.00251119
0.00248604
0.00246125
0.00243751
0.00241424
0.00239172
0.00236965
0.00234817
0.00232707
0.00230647
0.00228621
0.00226637
0.00224682
0.00222765
0.00220873
0.00219013
0.00217176
0.00215369
0.00213582
0.00211821
0.00210078
0.00208359
0.00206656
0.00204975
0.00203309
0.00201663
0.0020003
0.00198416
0.00196814
0.00195229
0.00193656
0.00192097
0.0019055
0.00189017
0.00187495
0.00185985
0.00184485
0.00182997
0.00181518
0.00180051
0.00178591
0.00177143
0.00175702
0.00174272
0.00172848
0.00171435
0.00170028
0.0016863
0.00167238
0.00165855
0.00164478
0.00163108
0.00161745
0.00160389
0.00159038
0.00157694
0.00156356
0.00155024
0.00153697
0.00152376
0.0015106
0.0014975
0.00148444
0.00147143
0.00145847
0.00144556
0.00143269
0.00141987
0.00140708
0.00139435
0.00138165
0.00136899
0.00135636
0.00134378
0.00133123
0.00131872
0.00130624
0.0012938
0.00128138
0.001269
0.00125665
0.00124433
0.00123204
0.00121978
0.00120754
0.00119533
0.00118315
0.00117099
0.00115886
0.00114675
0.00113467
0.00112261
0.00111057
0.00109855
0.00108655
0.00107458
0.00106262
0.00105068
0.00103876
0.00102687
0.00101498
0.00100312
0.00099127
0.00097944
0.000967624
0.000955825
0.000944039
0.000932271
0.000920514
0.000908774
0.000897044
0.000885331
0.000873628
0.00086194
0.000850261
0.000838598
0.000826942
0.000815301
0.000803667
0.000792047
0.000780434
0.000768835
0.000757241
0.000745661
0.000734086
0.000722526
0.000710969
0.000699426
0.000687887
0.000676361
0.000664838
0.000653327
0.00064182
0.000630323
0.000618829
0.000607344
0.000595861
0.000584387
0.000572913
0.000561448
0.000549983
0.000538526
0.000527071
0.000515625
0.000504181
0.000492747
0.000481318
0.0004699
0.000458488
0.000447089
0.000435697
0.000424318
0.000412947
0.000401589
0.000390237
0.000378899
0.000367564
0.000356242
0.000344921
0.00033361
0.000322299
0.000310996
0.000299691
0.000288392
0.000277089
0.000265791
0.000254488
0.00024319
0.000231885
0.000220584
0.000209277
0.000197974
0.000186665
0.000175359
0.000164049
0.000152739
0.000141428
0.000130117
0.000118804
0.000107492
9.61772e-05
8.48652e-05
7.35498e-05
6.22368e-05
5.09216e-05
3.96075e-05
2.82923e-05
1.69718e-05
5.65866e-06
0.00307179
0.00283702
0.00285883
0.00275485
0.00273967
0.00268603
0.00265981
0.00262279
0.00259509
0.00256476
0.00253811
0.00251119
0.00248604
0.00246125
0.00243751
0.00241424
0.00239172
0.00236965
0.00234816
0.00232707
0.00230647
0.00228621
0.00226637
0.00224682
0.00222765
0.00220872
0.00219013
0.00217176
0.00215369
0.00213582
0.00211821
0.00210078
0.00208359
0.00206656
0.00204975
0.00203309
0.00201663
0.0020003
0.00198416
0.00196814
0.00195229
0.00193656
0.00192097
0.0019055
0.00189017
0.00187495
0.00185985
0.00184485
0.00182997
0.00181518
0.00180051
0.00178591
0.00177143
0.00175702
0.00174272
0.00172848
0.00171435
0.00170028
0.0016863
0.00167238
0.00165855
0.00164478
0.00163108
0.00161745
0.00160389
0.00159038
0.00157694
0.00156356
0.00155024
0.00153697
0.00152376
0.0015106
0.0014975
0.00148444
0.00147143
0.00145847
0.00144556
0.00143269
0.00141987
0.00140708
0.00139435
0.00138165
0.00136899
0.00135636
0.00134378
0.00133123
0.00131872
0.00130624
0.0012938
0.00128138
0.001269
0.00125665
0.00124433
0.00123204
0.00121978
0.00120754
0.00119533
0.00118315
0.00117099
0.00115886
0.00114675
0.00113467
0.00112261
0.00111057
0.00109855
0.00108655
0.00107458
0.00106262
0.00105068
0.00103876
0.00102687
0.00101498
0.00100312
0.00099127
0.00097944
0.000967624
0.000955825
0.000944039
0.000932271
0.000920514
0.000908774
0.000897044
0.000885331
0.000873628
0.00086194
0.000850261
0.000838598
0.000826942
0.000815301
0.000803667
0.000792047
0.000780434
0.000768835
0.000757241
0.000745661
0.000734086
0.000722526
0.000710969
0.000699426
0.000687887
0.000676361
0.000664838
0.000653327
0.00064182
0.000630323
0.000618829
0.000607344
0.000595861
0.000584387
0.000572913
0.000561448
0.000549983
0.000538526
0.000527071
0.000515625
0.000504181
0.000492747
0.000481318
0.0004699
0.000458488
0.000447089
0.000435697
0.000424318
0.000412947
0.000401589
0.000390237
0.000378899
0.000367564
0.000356242
0.000344921
0.00033361
0.000322299
0.000310996
0.000299691
0.000288392
0.000277089
0.000265791
0.000254488
0.00024319
0.000231885
0.000220584
0.000209277
0.000197974
0.000186665
0.000175359
0.000164049
0.000152739
0.000141428
0.000130117
0.000118804
0.000107492
9.61772e-05
8.48652e-05
7.35498e-05
6.22368e-05
5.09216e-05
3.96075e-05
2.82923e-05
1.69717e-05
5.65863e-06
0.00307199
0.00283694
0.00285879
0.00275483
0.00273966
0.00268602
0.0026598
0.00262278
0.00259508
0.00256476
0.00253811
0.00251119
0.00248604
0.00246124
0.00243751
0.00241424
0.00239172
0.00236965
0.00234816
0.00232707
0.00230647
0.00228621
0.00226637
0.00224682
0.00222765
0.00220872
0.00219013
0.00217176
0.00215369
0.00213582
0.00211821
0.00210078
0.00208359
0.00206656
0.00204975
0.00203309
0.00201663
0.0020003
0.00198416
0.00196814
0.00195229
0.00193655
0.00192097
0.0019055
0.00189017
0.00187495
0.00185985
0.00184485
0.00182997
0.00181518
0.0018005
0.00178591
0.00177143
0.00175702
0.00174272
0.00172848
0.00171435
0.00170028
0.0016863
0.00167238
0.00165855
0.00164478
0.00163108
0.00161745
0.00160389
0.00159038
0.00157694
0.00156356
0.00155024
0.00153697
0.00152376
0.0015106
0.0014975
0.00148444
0.00147143
0.00145847
0.00144556
0.00143269
0.00141987
0.00140708
0.00139435
0.00138165
0.00136899
0.00135636
0.00134378
0.00133123
0.00131872
0.00130624
0.0012938
0.00128138
0.001269
0.00125665
0.00124433
0.00123204
0.00121978
0.00120754
0.00119533
0.00118315
0.00117099
0.00115886
0.00114675
0.00113467
0.00112261
0.00111057
0.00109855
0.00108655
0.00107458
0.00106262
0.00105068
0.00103876
0.00102687
0.00101498
0.00100312
0.00099127
0.00097944
0.000967624
0.000955825
0.000944039
0.000932271
0.000920514
0.000908774
0.000897044
0.000885331
0.000873628
0.00086194
0.000850261
0.000838597
0.000826942
0.000815301
0.000803667
0.000792047
0.000780434
0.000768835
0.000757241
0.000745661
0.000734086
0.000722526
0.000710969
0.000699426
0.000687887
0.000676361
0.000664838
0.000653327
0.00064182
0.000630323
0.000618829
0.000607344
0.000595861
0.000584387
0.000572913
0.000561448
0.000549983
0.000538526
0.000527071
0.000515625
0.000504181
0.000492747
0.000481318
0.0004699
0.000458488
0.000447089
0.000435697
0.000424318
0.000412947
0.000401589
0.000390237
0.000378899
0.000367564
0.000356242
0.000344921
0.00033361
0.000322299
0.000310996
0.000299691
0.000288392
0.000277089
0.000265791
0.000254488
0.00024319
0.000231885
0.000220584
0.000209277
0.000197974
0.000186665
0.000175359
0.000164049
0.000152739
0.000141428
0.000130117
0.000118804
0.000107492
9.61772e-05
8.48652e-05
7.35498e-05
6.22368e-05
5.09216e-05
3.96075e-05
2.82923e-05
1.69718e-05
5.65867e-06
0.00307231
0.0028368
0.00285872
0.00275479
0.00273963
0.00268601
0.00265979
0.00262278
0.00259508
0.00256475
0.0025381
0.00251118
0.00248604
0.00246124
0.0024375
0.00241424
0.00239172
0.00236964
0.00234816
0.00232707
0.00230647
0.00228621
0.00226637
0.00224682
0.00222764
0.00220872
0.00219013
0.00217176
0.00215369
0.00213582
0.00211821
0.00210078
0.00208359
0.00206656
0.00204975
0.00203309
0.00201663
0.0020003
0.00198416
0.00196814
0.00195229
0.00193655
0.00192097
0.0019055
0.00189017
0.00187494
0.00185985
0.00184485
0.00182997
0.00181518
0.0018005
0.00178591
0.00177143
0.00175702
0.00174272
0.00172848
0.00171434
0.00170028
0.00168629
0.00167238
0.00165855
0.00164478
0.00163108
0.00161745
0.00160389
0.00159038
0.00157694
0.00156356
0.00155024
0.00153697
0.00152376
0.0015106
0.0014975
0.00148444
0.00147143
0.00145847
0.00144556
0.00143269
0.00141987
0.00140708
0.00139435
0.00138164
0.00136899
0.00135636
0.00134378
0.00133123
0.00131872
0.00130624
0.0012938
0.00128138
0.001269
0.00125665
0.00124433
0.00123204
0.00121978
0.00120754
0.00119533
0.00118315
0.00117099
0.00115886
0.00114675
0.00113467
0.00112261
0.00111057
0.00109855
0.00108655
0.00107458
0.00106262
0.00105068
0.00103876
0.00102687
0.00101498
0.00100312
0.00099127
0.00097944
0.000967623
0.000955825
0.000944039
0.00093227
0.000920514
0.000908774
0.000897044
0.000885331
0.000873628
0.00086194
0.000850261
0.000838597
0.000826942
0.000815301
0.000803667
0.000792047
0.000780434
0.000768835
0.000757241
0.000745661
0.000734086
0.000722526
0.000710969
0.000699426
0.000687887
0.000676361
0.000664838
0.000653327
0.00064182
0.000630323
0.000618829
0.000607344
0.000595861
0.000584387
0.000572913
0.000561448
0.000549983
0.000538526
0.000527071
0.000515625
0.000504181
0.000492747
0.000481318
0.0004699
0.000458488
0.000447089
0.000435697
0.000424318
0.000412947
0.000401589
0.000390237
0.000378899
0.000367564
0.000356241
0.000344921
0.00033361
0.000322299
0.000310996
0.000299691
0.000288392
0.000277089
0.000265791
0.000254488
0.00024319
0.000231885
0.000220584
0.000209277
0.000197974
0.000186665
0.000175359
0.000164049
0.000152739
0.000141428
0.000130117
0.000118804
0.000107492
9.61772e-05
8.48652e-05
7.35498e-05
6.22368e-05
5.09216e-05
3.96075e-05
2.82924e-05
1.69719e-05
5.65877e-06
0.00307273
0.00283662
0.00285864
0.00275475
0.0027396
0.00268599
0.00265977
0.00262277
0.00259507
0.00256475
0.0025381
0.00251118
0.00248603
0.00246124
0.0024375
0.00241423
0.00239171
0.00236964
0.00234816
0.00232706
0.00230647
0.0022862
0.00226636
0.00224682
0.00222764
0.00220872
0.00219013
0.00217176
0.00215369
0.00213581
0.00211821
0.00210078
0.00208359
0.00206656
0.00204975
0.00203309
0.00201663
0.0020003
0.00198416
0.00196814
0.00195229
0.00193655
0.00192097
0.0019055
0.00189017
0.00187494
0.00185985
0.00184485
0.00182997
0.00181518
0.0018005
0.00178591
0.00177143
0.00175702
0.00174272
0.00172848
0.00171434
0.00170028
0.00168629
0.00167238
0.00165855
0.00164477
0.00163108
0.00161745
0.00160389
0.00159038
0.00157694
0.00156356
0.00155024
0.00153697
0.00152376
0.0015106
0.0014975
0.00148444
0.00147143
0.00145847
0.00144556
0.00143269
0.00141987
0.00140708
0.00139435
0.00138164
0.00136899
0.00135636
0.00134378
0.00133123
0.00131872
0.00130624
0.0012938
0.00128138
0.001269
0.00125665
0.00124433
0.00123204
0.00121978
0.00120754
0.00119533
0.00118315
0.00117099
0.00115886
0.00114675
0.00113467
0.00112261
0.00111057
0.00109855
0.00108655
0.00107458
0.00106262
0.00105068
0.00103876
0.00102687
0.00101498
0.00100312
0.00099127
0.00097944
0.000967623
0.000955825
0.000944039
0.00093227
0.000920514
0.000908773
0.000897044
0.000885331
0.000873628
0.00086194
0.000850261
0.000838597
0.000826942
0.000815301
0.000803667
0.000792047
0.000780434
0.000768835
0.000757241
0.000745661
0.000734086
0.000722526
0.000710969
0.000699426
0.000687887
0.000676361
0.000664838
0.000653327
0.00064182
0.000630323
0.000618829
0.000607344
0.000595861
0.000584387
0.000572913
0.000561448
0.000549983
0.000538526
0.000527071
0.000515625
0.000504181
0.000492747
0.000481318
0.0004699
0.000458488
0.000447089
0.000435696
0.000424318
0.000412947
0.000401589
0.000390237
0.000378898
0.000367564
0.000356241
0.000344921
0.00033361
0.000322299
0.000310996
0.000299691
0.000288392
0.000277089
0.000265791
0.000254488
0.00024319
0.000231885
0.000220584
0.000209277
0.000197974
0.000186665
0.000175359
0.000164049
0.000152739
0.000141428
0.000130117
0.000118804
0.000107492
9.61772e-05
8.48652e-05
7.35498e-05
6.22368e-05
5.09216e-05
3.96075e-05
2.82924e-05
1.6972e-05
5.65892e-06
0.00307325
0.00283639
0.00285854
0.00275469
0.00273956
0.00268596
0.00265975
0.00262275
0.00259506
0.00256474
0.00253809
0.00251117
0.00248602
0.00246123
0.00243749
0.00241423
0.00239171
0.00236964
0.00234815
0.00232706
0.00230646
0.0022862
0.00226636
0.00224681
0.00222764
0.00220872
0.00219013
0.00217176
0.00215369
0.00213581
0.0021182
0.00210077
0.00208359
0.00206656
0.00204975
0.00203309
0.00201663
0.0020003
0.00198416
0.00196814
0.00195229
0.00193655
0.00192097
0.0019055
0.00189017
0.00187494
0.00185985
0.00184485
0.00182997
0.00181518
0.0018005
0.00178591
0.00177143
0.00175702
0.00174271
0.00172848
0.00171434
0.00170027
0.00168629
0.00167238
0.00165855
0.00164477
0.00163108
0.00161745
0.00160389
0.00159038
0.00157694
0.00156356
0.00155024
0.00153697
0.00152376
0.0015106
0.0014975
0.00148444
0.00147143
0.00145847
0.00144556
0.00143269
0.00141987
0.00140708
0.00139435
0.00138164
0.00136899
0.00135636
0.00134378
0.00133123
0.00131872
0.00130624
0.0012938
0.00128138
0.001269
0.00125665
0.00124433
0.00123204
0.00121978
0.00120754
0.00119533
0.00118315
0.00117099
0.00115886
0.00114675
0.00113467
0.00112261
0.00111057
0.00109855
0.00108655
0.00107458
0.00106262
0.00105068
0.00103876
0.00102687
0.00101498
0.00100312
0.00099127
0.00097944
0.000967623
0.000955825
0.000944039
0.00093227
0.000920514
0.000908773
0.000897044
0.000885331
0.000873627
0.00086194
0.000850261
0.000838597
0.000826941
0.000815301
0.000803666
0.000792047
0.000780434
0.000768835
0.000757241
0.000745661
0.000734086
0.000722525
0.000710969
0.000699426
0.000687887
0.00067636
0.000664838
0.000653327
0.00064182
0.000630323
0.000618829
0.000607344
0.000595861
0.000584387
0.000572913
0.000561448
0.000549983
0.000538526
0.000527071
0.000515625
0.000504181
0.000492747
0.000481317
0.0004699
0.000458488
0.000447089
0.000435696
0.000424318
0.000412946
0.000401589
0.000390237
0.000378898
0.000367564
0.000356241
0.000344921
0.00033361
0.000322299
0.000310996
0.000299691
0.000288392
0.000277089
0.000265791
0.000254488
0.00024319
0.000231885
0.000220584
0.000209277
0.000197974
0.000186665
0.000175359
0.000164049
0.000152739
0.000141428
0.000130117
0.000118804
0.000107492
9.61772e-05
8.48652e-05
7.35498e-05
6.22368e-05
5.09216e-05
3.96076e-05
2.82924e-05
1.69722e-05
5.65913e-06
0.00307388
0.00283612
0.00285841
0.00275461
0.00273951
0.00268593
0.00265973
0.00262273
0.00259504
0.00256472
0.00253808
0.00251116
0.00248602
0.00246122
0.00243749
0.00241422
0.0023917
0.00236963
0.00234815
0.00232706
0.00230646
0.0022862
0.00226636
0.00224681
0.00222764
0.00220871
0.00219012
0.00217176
0.00215368
0.00213581
0.0021182
0.00210077
0.00208358
0.00206656
0.00204975
0.00203309
0.00201662
0.0020003
0.00198415
0.00196814
0.00195228
0.00193655
0.00192097
0.0019055
0.00189017
0.00187494
0.00185985
0.00184485
0.00182997
0.00181518
0.0018005
0.00178591
0.00177143
0.00175702
0.00174271
0.00172848
0.00171434
0.00170027
0.00168629
0.00167238
0.00165855
0.00164477
0.00163108
0.00161745
0.00160389
0.00159038
0.00157694
0.00156356
0.00155024
0.00153697
0.00152376
0.0015106
0.0014975
0.00148444
0.00147143
0.00145847
0.00144556
0.00143269
0.00141987
0.00140708
0.00139435
0.00138164
0.00136899
0.00135636
0.00134378
0.00133123
0.00131872
0.00130624
0.0012938
0.00128138
0.001269
0.00125665
0.00124433
0.00123204
0.00121978
0.00120754
0.00119533
0.00118315
0.00117099
0.00115886
0.00114675
0.00113467
0.00112261
0.00111057
0.00109855
0.00108655
0.00107458
0.00106262
0.00105068
0.00103876
0.00102687
0.00101498
0.00100312
0.00099127
0.00097944
0.000967623
0.000955825
0.000944039
0.00093227
0.000920513
0.000908773
0.000897044
0.000885331
0.000873627
0.00086194
0.000850261
0.000838597
0.000826941
0.000815301
0.000803666
0.000792047
0.000780434
0.000768835
0.000757241
0.000745661
0.000734086
0.000722525
0.000710969
0.000699426
0.000687886
0.00067636
0.000664838
0.000653327
0.00064182
0.000630323
0.000618829
0.000607344
0.000595861
0.000584387
0.000572913
0.000561448
0.000549983
0.000538526
0.000527071
0.000515625
0.000504181
0.000492747
0.000481317
0.0004699
0.000458488
0.000447089
0.000435696
0.000424318
0.000412946
0.000401589
0.000390237
0.000378898
0.000367564
0.000356241
0.000344921
0.00033361
0.000322299
0.000310996
0.000299691
0.000288392
0.000277089
0.000265791
0.000254488
0.00024319
0.000231885
0.000220584
0.000209277
0.000197974
0.000186665
0.000175359
0.000164049
0.000152739
0.000141428
0.000130117
0.000118804
0.000107492
9.61772e-05
8.48652e-05
7.35498e-05
6.22368e-05
5.09216e-05
3.96076e-05
2.82924e-05
1.69725e-05
5.65938e-06
0.00307462
0.0028358
0.00285827
0.00275453
0.00273945
0.0026859
0.00265971
0.00262271
0.00259503
0.00256471
0.00253807
0.00251115
0.00248601
0.00246121
0.00243748
0.00241421
0.0023917
0.00236962
0.00234814
0.00232705
0.00230645
0.00228619
0.00226635
0.00224681
0.00222763
0.00220871
0.00219012
0.00217175
0.00215368
0.00213581
0.0021182
0.00210077
0.00208358
0.00206655
0.00204975
0.00203308
0.00201662
0.0020003
0.00198415
0.00196813
0.00195228
0.00193655
0.00192097
0.0019055
0.00189017
0.00187494
0.00185984
0.00184484
0.00182997
0.00181518
0.0018005
0.00178591
0.00177143
0.00175702
0.00174271
0.00172848
0.00171434
0.00170027
0.00168629
0.00167238
0.00165854
0.00164477
0.00163108
0.00161745
0.00160389
0.00159038
0.00157694
0.00156356
0.00155024
0.00153697
0.00152376
0.0015106
0.0014975
0.00148444
0.00147143
0.00145847
0.00144556
0.00143269
0.00141987
0.00140708
0.00139435
0.00138164
0.00136899
0.00135636
0.00134378
0.00133123
0.00131872
0.00130624
0.00129379
0.00128138
0.001269
0.00125665
0.00124433
0.00123204
0.00121978
0.00120754
0.00119533
0.00118315
0.00117099
0.00115886
0.00114675
0.00113467
0.00112261
0.00111057
0.00109855
0.00108655
0.00107458
0.00106262
0.00105068
0.00103876
0.00102687
0.00101498
0.00100312
0.00099127
0.00097944
0.000967623
0.000955825
0.000944039
0.00093227
0.000920513
0.000908773
0.000897044
0.000885331
0.000873627
0.00086194
0.000850261
0.000838597
0.000826941
0.0008153
0.000803666
0.000792047
0.000780433
0.000768835
0.000757241
0.000745661
0.000734086
0.000722525
0.000710969
0.000699426
0.000687886
0.00067636
0.000664838
0.000653327
0.00064182
0.000630323
0.000618829
0.000607344
0.000595861
0.000584387
0.000572913
0.000561448
0.000549983
0.000538526
0.000527071
0.000515625
0.000504181
0.000492747
0.000481317
0.0004699
0.000458487
0.000447089
0.000435696
0.000424318
0.000412946
0.000401589
0.000390237
0.000378898
0.000367564
0.000356241
0.000344921
0.00033361
0.000322299
0.000310996
0.000299691
0.000288392
0.000277089
0.000265791
0.000254488
0.00024319
0.000231885
0.000220584
0.000209277
0.000197974
0.000186665
0.000175359
0.000164049
0.000152739
0.000141428
0.000130117
0.000118804
0.000107492
9.61772e-05
8.48652e-05
7.35498e-05
6.22368e-05
5.09216e-05
3.96076e-05
2.82924e-05
1.69728e-05
5.65967e-06
0.00307546
0.00283543
0.0028581
0.00275443
0.00273939
0.00268586
0.00265968
0.00262269
0.00259501
0.00256469
0.00253805
0.00251114
0.002486
0.0024612
0.00243747
0.00241421
0.00239169
0.00236962
0.00234814
0.00232705
0.00230645
0.00228619
0.00226635
0.0022468
0.00222763
0.00220871
0.00219012
0.00217175
0.00215368
0.0021358
0.0021182
0.00210077
0.00208358
0.00206655
0.00204974
0.00203308
0.00201662
0.00200029
0.00198415
0.00196813
0.00195228
0.00193655
0.00192097
0.0019055
0.00189017
0.00187494
0.00185984
0.00184484
0.00182996
0.00181518
0.0018005
0.00178591
0.00177142
0.00175702
0.00174271
0.00172848
0.00171434
0.00170027
0.00168629
0.00167238
0.00165854
0.00164477
0.00163108
0.00161744
0.00160388
0.00159038
0.00157694
0.00156356
0.00155024
0.00153697
0.00152376
0.0015106
0.00149749
0.00148443
0.00147143
0.00145847
0.00144556
0.00143269
0.00141987
0.00140708
0.00139435
0.00138164
0.00136899
0.00135636
0.00134378
0.00133123
0.00131872
0.00130624
0.00129379
0.00128138
0.001269
0.00125665
0.00124433
0.00123204
0.00121978
0.00120754
0.00119533
0.00118315
0.00117099
0.00115886
0.00114675
0.00113467
0.00112261
0.00111057
0.00109855
0.00108655
0.00107458
0.00106262
0.00105068
0.00103876
0.00102686
0.00101498
0.00100312
0.00099127
0.000979439
0.000967623
0.000955824
0.000944039
0.00093227
0.000920513
0.000908773
0.000897044
0.000885331
0.000873627
0.00086194
0.000850261
0.000838597
0.000826941
0.0008153
0.000803666
0.000792047
0.000780433
0.000768834
0.000757241
0.000745661
0.000734086
0.000722525
0.000710969
0.000699426
0.000687886
0.00067636
0.000664838
0.000653327
0.000641819
0.000630323
0.000618829
0.000607344
0.000595861
0.000584387
0.000572913
0.000561448
0.000549983
0.000538526
0.000527071
0.000515625
0.00050418
0.000492747
0.000481317
0.0004699
0.000458487
0.000447089
0.000435696
0.000424318
0.000412946
0.000401589
0.000390237
0.000378898
0.000367564
0.000356241
0.000344921
0.00033361
0.000322299
0.000310996
0.000299691
0.000288392
0.000277089
0.000265791
0.000254488
0.00024319
0.000231885
0.000220584
0.000209277
0.000197974
0.000186665
0.000175359
0.000164049
0.000152739
0.000141428
0.000130117
0.000118804
0.000107492
9.61772e-05
8.48652e-05
7.35498e-05
6.22368e-05
5.09216e-05
3.96076e-05
2.82924e-05
1.69731e-05
5.65999e-06
0.0030764
0.00283502
0.00285792
0.00275432
0.00273932
0.00268582
0.00265964
0.00262267
0.00259499
0.00256468
0.00253804
0.00251113
0.00248598
0.00246119
0.00243746
0.0024142
0.00239168
0.00236961
0.00234813
0.00232704
0.00230644
0.00228618
0.00226634
0.0022468
0.00222762
0.0022087
0.00219011
0.00217175
0.00215367
0.0021358
0.00211819
0.00210076
0.00208358
0.00206655
0.00204974
0.00203308
0.00201662
0.00200029
0.00198415
0.00196813
0.00195228
0.00193655
0.00192097
0.00190549
0.00189017
0.00187494
0.00185984
0.00184484
0.00182996
0.00181517
0.0018005
0.00178591
0.00177142
0.00175702
0.00174271
0.00172848
0.00171434
0.00170027
0.00168629
0.00167238
0.00165854
0.00164477
0.00163108
0.00161744
0.00160388
0.00159038
0.00157694
0.00156356
0.00155024
0.00153697
0.00152376
0.0015106
0.00149749
0.00148443
0.00147143
0.00145847
0.00144556
0.00143269
0.00141987
0.00140708
0.00139435
0.00138164
0.00136899
0.00135636
0.00134378
0.00133123
0.00131872
0.00130624
0.00129379
0.00128138
0.001269
0.00125665
0.00124433
0.00123204
0.00121978
0.00120754
0.00119533
0.00118315
0.00117099
0.00115886
0.00114675
0.00113467
0.00112261
0.00111057
0.00109855
0.00108655
0.00107458
0.00106262
0.00105068
0.00103876
0.00102686
0.00101498
0.00100312
0.000991269
0.000979439
0.000967623
0.000955824
0.000944038
0.00093227
0.000920513
0.000908773
0.000897044
0.00088533
0.000873627
0.000861939
0.000850261
0.000838597
0.000826941
0.0008153
0.000803666
0.000792047
0.000780433
0.000768834
0.00075724
0.000745661
0.000734086
0.000722525
0.000710968
0.000699425
0.000687886
0.00067636
0.000664837
0.000653327
0.000641819
0.000630323
0.000618829
0.000607344
0.000595861
0.000584387
0.000572913
0.000561448
0.000549983
0.000538526
0.000527071
0.000515624
0.00050418
0.000492747
0.000481317
0.0004699
0.000458487
0.000447088
0.000435696
0.000424318
0.000412946
0.000401588
0.000390237
0.000378898
0.000367564
0.000356241
0.000344921
0.00033361
0.000322299
0.000310996
0.000299691
0.000288392
0.000277089
0.000265791
0.000254488
0.00024319
0.000231885
0.000220584
0.000209277
0.000197974
0.000186665
0.000175359
0.000164049
0.000152739
0.000141428
0.000130117
0.000118804
0.000107492
9.61772e-05
8.48652e-05
7.35498e-05
6.22368e-05
5.09216e-05
3.96076e-05
2.82924e-05
1.69734e-05
5.66035e-06
0.00307746
0.00283456
0.00285771
0.0027542
0.00273924
0.00268577
0.00265961
0.00262264
0.00259496
0.00256466
0.00253802
0.00251111
0.00248597
0.00246118
0.00243745
0.00241419
0.00239167
0.0023696
0.00234812
0.00232703
0.00230644
0.00228617
0.00226634
0.00224679
0.00222762
0.0022087
0.00219011
0.00217174
0.00215367
0.0021358
0.00211819
0.00210076
0.00208357
0.00206655
0.00204974
0.00203308
0.00201662
0.00200029
0.00198415
0.00196813
0.00195228
0.00193654
0.00192096
0.00190549
0.00189016
0.00187494
0.00185984
0.00184484
0.00182996
0.00181517
0.0018005
0.00178591
0.00177142
0.00175702
0.00174271
0.00172848
0.00171434
0.00170027
0.00168629
0.00167237
0.00165854
0.00164477
0.00163108
0.00161744
0.00160388
0.00159038
0.00157694
0.00156356
0.00155024
0.00153697
0.00152376
0.0015106
0.00149749
0.00148443
0.00147143
0.00145847
0.00144556
0.00143269
0.00141987
0.00140708
0.00139434
0.00138164
0.00136899
0.00135636
0.00134378
0.00133123
0.00131872
0.00130624
0.00129379
0.00128138
0.001269
0.00125665
0.00124433
0.00123204
0.00121978
0.00120754
0.00119533
0.00118315
0.00117099
0.00115886
0.00114675
0.00113467
0.00112261
0.00111057
0.00109855
0.00108655
0.00107458
0.00106262
0.00105068
0.00103876
0.00102686
0.00101498
0.00100312
0.000991269
0.000979439
0.000967623
0.000955824
0.000944038
0.00093227
0.000920513
0.000908773
0.000897044
0.00088533
0.000873627
0.000861939
0.00085026
0.000838597
0.000826941
0.0008153
0.000803666
0.000792047
0.000780433
0.000768834
0.00075724
0.000745661
0.000734086
0.000722525
0.000710968
0.000699425
0.000687886
0.00067636
0.000664837
0.000653327
0.000641819
0.000630323
0.000618828
0.000607344
0.000595861
0.000584387
0.000572913
0.000561448
0.000549983
0.000538526
0.000527071
0.000515624
0.00050418
0.000492747
0.000481317
0.000469899
0.000458487
0.000447088
0.000435696
0.000424318
0.000412946
0.000401588
0.000390237
0.000378898
0.000367564
0.000356241
0.000344921
0.00033361
0.000322299
0.000310996
0.000299691
0.000288392
0.000277089
0.000265791
0.000254488
0.00024319
0.000231885
0.000220584
0.000209277
0.000197974
0.000186665
0.000175359
0.000164049
0.000152739
0.000141428
0.000130117
0.000118804
0.000107492
9.61773e-05
8.48652e-05
7.35498e-05
6.22368e-05
5.09216e-05
3.96076e-05
2.82925e-05
1.69738e-05
5.66072e-06
0.00307862
0.00283405
0.00285748
0.00275406
0.00273915
0.00268571
0.00265957
0.00262261
0.00259494
0.00256464
0.002538
0.00251109
0.00248596
0.00246117
0.00243744
0.00241418
0.00239166
0.00236959
0.00234811
0.00232703
0.00230643
0.00228617
0.00226633
0.00224679
0.00222761
0.00220869
0.0021901
0.00217174
0.00215367
0.00213579
0.00211819
0.00210076
0.00208357
0.00206654
0.00204973
0.00203307
0.00201661
0.00200029
0.00198414
0.00196813
0.00195228
0.00193654
0.00192096
0.00190549
0.00189016
0.00187493
0.00185984
0.00184484
0.00182996
0.00181517
0.0018005
0.00178591
0.00177142
0.00175702
0.00174271
0.00172848
0.00171434
0.00170027
0.00168629
0.00167237
0.00165854
0.00164477
0.00163108
0.00161744
0.00160388
0.00159038
0.00157694
0.00156355
0.00155024
0.00153697
0.00152376
0.0015106
0.00149749
0.00148443
0.00147143
0.00145847
0.00144556
0.00143269
0.00141987
0.00140708
0.00139434
0.00138164
0.00136898
0.00135636
0.00134378
0.00133123
0.00131872
0.00130624
0.00129379
0.00128138
0.001269
0.00125665
0.00124433
0.00123204
0.00121977
0.00120754
0.00119533
0.00118315
0.00117099
0.00115886
0.00114675
0.00113467
0.00112261
0.00111057
0.00109855
0.00108655
0.00107458
0.00106262
0.00105068
0.00103876
0.00102686
0.00101498
0.00100312
0.000991269
0.000979439
0.000967623
0.000955824
0.000944038
0.00093227
0.000920513
0.000908773
0.000897043
0.00088533
0.000873627
0.000861939
0.00085026
0.000838597
0.000826941
0.0008153
0.000803666
0.000792047
0.000780433
0.000768834
0.00075724
0.000745661
0.000734086
0.000722525
0.000710968
0.000699425
0.000687886
0.00067636
0.000664837
0.000653327
0.000641819
0.000630323
0.000618828
0.000607344
0.000595861
0.000584387
0.000572913
0.000561447
0.000549983
0.000538526
0.000527071
0.000515624
0.00050418
0.000492747
0.000481317
0.000469899
0.000458487
0.000447088
0.000435696
0.000424317
0.000412946
0.000401588
0.000390236
0.000378898
0.000367564
0.000356241
0.00034492
0.00033361
0.000322299
0.000310996
0.000299691
0.000288392
0.000277089
0.000265791
0.000254488
0.00024319
0.000231885
0.000220585
0.000209277
0.000197974
0.000186665
0.000175359
0.000164049
0.000152739
0.000141428
0.000130117
0.000118804
0.000107492
9.61773e-05
8.48653e-05
7.35498e-05
6.22368e-05
5.09216e-05
3.96077e-05
2.82925e-05
1.69742e-05
5.66111e-06
0.00307988
0.00283349
0.00285722
0.00275391
0.00273905
0.00268566
0.00265952
0.00262257
0.00259491
0.00256461
0.00253798
0.00251108
0.00248594
0.00246115
0.00243743
0.00241416
0.00239165
0.00236958
0.00234811
0.00232702
0.00230642
0.00228616
0.00226633
0.00224678
0.00222761
0.00220869
0.0021901
0.00217173
0.00215366
0.00213579
0.00211818
0.00210075
0.00208357
0.00206654
0.00204973
0.00203307
0.00201661
0.00200028
0.00198414
0.00196812
0.00195227
0.00193654
0.00192096
0.00190549
0.00189016
0.00187493
0.00185984
0.00184484
0.00182996
0.00181517
0.00180049
0.0017859
0.00177142
0.00175701
0.00174271
0.00172848
0.00171434
0.00170027
0.00168629
0.00167237
0.00165854
0.00164477
0.00163108
0.00161744
0.00160388
0.00159037
0.00157694
0.00156355
0.00155024
0.00153696
0.00152376
0.00151059
0.00149749
0.00148443
0.00147143
0.00145847
0.00144556
0.00143269
0.00141986
0.00140708
0.00139434
0.00138164
0.00136898
0.00135636
0.00134378
0.00133123
0.00131872
0.00130624
0.00129379
0.00128138
0.001269
0.00125665
0.00124433
0.00123204
0.00121977
0.00120754
0.00119533
0.00118315
0.00117099
0.00115886
0.00114675
0.00113467
0.00112261
0.00111057
0.00109855
0.00108655
0.00107458
0.00106262
0.00105068
0.00103876
0.00102686
0.00101498
0.00100312
0.000991269
0.000979439
0.000967622
0.000955824
0.000944038
0.000932269
0.000920513
0.000908773
0.000897043
0.00088533
0.000873627
0.000861939
0.00085026
0.000838597
0.000826941
0.0008153
0.000803666
0.000792047
0.000780433
0.000768834
0.00075724
0.000745661
0.000734086
0.000722525
0.000710968
0.000699425
0.000687886
0.00067636
0.000664837
0.000653327
0.000641819
0.000630323
0.000618828
0.000607344
0.000595861
0.000584386
0.000572913
0.000561447
0.000549983
0.000538526
0.000527071
0.000515624
0.00050418
0.000492747
0.000481317
0.000469899
0.000458487
0.000447088
0.000435696
0.000424317
0.000412946
0.000401588
0.000390236
0.000378898
0.000367564