/*--------------------------------*- C++ -*----------------------------------*\
| =========                 |                                                 |
| \\      /  F ield         | OpenFOAM: The Open Source CFD Toolbox           |
|  \\    /   O peration     | Version:  2412                                  |
|   \\  /    A nd           | Website:  www.openfoam.com                      |
|    \\/     M anipulation  |                                                 |
\*---------------------------------------------------------------------------*/
FoamFile
{
    version     2.0;
    format      ascii;
    arch        "LSB;label=32;scalar=64";
    class       surfaceScalarField;
    location    "700";
    object      phi;
}
// * * * * * * * * * * * * * * * * * * * * * * * * * * * * * * * * * * * * * //

dimensions      [0 3 -1 0 0 0 0];

oriented        oriented;

internalField   nonuniform List<scalar> 
15760
(
1.31108e-08
-6.10825e-10
1.35269e-08
-4.16099e-10
1.37775e-08
-2.50606e-10
1.40115e-08
-2.33927e-10
1.41853e-08
-1.73816e-10
1.43505e-08
-1.65252e-10
1.44948e-08
-1.44233e-10
1.46315e-08
-1.36725e-10
1.47579e-08
-1.26417e-10
1.48782e-08
-1.20312e-10
1.4992e-08
-1.13833e-10
1.51011e-08
-1.09026e-10
1.52054e-08
-1.04335e-10
1.53059e-08
-1.0051e-10
1.54027e-08
-9.68185e-11
1.54964e-08
-9.36853e-11
1.5587e-08
-9.06142e-11
1.5675e-08
-8.79574e-11
1.57603e-08
-8.52923e-11
1.58432e-08
-8.29627e-11
1.59238e-08
-8.05728e-11
1.60023e-08
-7.84702e-11
1.60786e-08
-7.62738e-11
1.61529e-08
-7.4333e-11
1.62252e-08
-7.22794e-11
1.62956e-08
-7.0459e-11
1.63642e-08
-6.85174e-11
1.64309e-08
-6.67919e-11
1.64959e-08
-6.49443e-11
1.65592e-08
-6.32987e-11
1.66207e-08
-6.1535e-11
1.66807e-08
-5.99609e-11
1.6739e-08
-5.82754e-11
1.67957e-08
-5.67683e-11
1.68509e-08
-5.5158e-11
1.69046e-08
-5.37156e-11
1.69568e-08
-5.21785e-11
1.70076e-08
-5.07997e-11
1.70569e-08
-4.93342e-11
1.71049e-08
-4.80184e-11
1.71516e-08
-4.66231e-11
1.71969e-08
-4.53695e-11
1.7241e-08
-4.40431e-11
1.72838e-08
-4.28503e-11
1.73254e-08
-4.15915e-11
1.73659e-08
-4.04579e-11
1.74051e-08
-3.92654e-11
1.74433e-08
-3.81886e-11
1.74804e-08
-3.70609e-11
1.75164e-08
-3.60387e-11
1.75514e-08
-3.4974e-11
1.75854e-08
-3.40039e-11
1.76184e-08
-3.3e-11
1.76505e-08
-3.208e-11
1.76816e-08
-3.11341e-11
1.77119e-08
-3.02624e-11
1.77412e-08
-2.93712e-11
1.77698e-08
-2.85464e-11
1.77975e-08
-2.77066e-11
1.78244e-08
-2.69271e-11
1.78506e-08
-2.61353e-11
1.7876e-08
-2.53997e-11
1.79006e-08
-2.46528e-11
1.79246e-08
-2.39593e-11
1.79478e-08
-2.32544e-11
1.79704e-08
-2.26011e-11
1.79924e-08
-2.1936e-11
1.80137e-08
-2.13205e-11
1.80344e-08
-2.0693e-11
1.80545e-08
-2.01132e-11
1.8074e-08
-1.95214e-11
1.8093e-08
-1.8975e-11
1.81114e-08
-1.84172e-11
1.81293e-08
-1.79022e-11
1.81467e-08
-1.73764e-11
1.81636e-08
-1.68909e-11
1.818e-08
-1.63954e-11
1.81959e-08
-1.59377e-11
1.82114e-08
-1.54707e-11
1.82264e-08
-1.50393e-11
1.8241e-08
-1.4599e-11
1.82552e-08
-1.41924e-11
1.8269e-08
-1.37774e-11
1.82824e-08
-1.3394e-11
1.82954e-08
-1.30028e-11
1.8308e-08
-1.26413e-11
1.83203e-08
-1.22726e-11
1.83322e-08
-1.19316e-11
1.83438e-08
-1.15842e-11
1.83551e-08
-1.12624e-11
1.8366e-08
-1.09351e-11
1.83766e-08
-1.06313e-11
1.8387e-08
-1.0323e-11
1.8397e-08
-1.00361e-11
1.84067e-08
-9.74586e-12
1.84162e-08
-9.47474e-12
1.84254e-08
-9.20148e-12
1.84344e-08
-8.94525e-12
1.84431e-08
-8.68799e-12
1.84515e-08
-8.44582e-12
1.84597e-08
-8.20358e-12
1.84677e-08
-7.97477e-12
1.84754e-08
-7.74657e-12
1.8483e-08
-7.53043e-12
1.84903e-08
-7.31531e-12
1.84974e-08
-7.11115e-12
1.85043e-08
-6.90829e-12
1.8511e-08
-6.71542e-12
1.85175e-08
-6.52416e-12
1.85239e-08
-6.34203e-12
1.853e-08
-6.16178e-12
1.8536e-08
-5.98983e-12
1.85418e-08
-5.81999e-12
1.85475e-08
-5.65763e-12
1.8553e-08
-5.49743e-12
1.85583e-08
-5.34397e-12
1.85635e-08
-5.19266e-12
1.85686e-08
-5.04744e-12
1.85735e-08
-4.90445e-12
1.85783e-08
-4.76701e-12
1.85829e-08
-4.63214e-12
1.85874e-08
-4.50222e-12
1.85918e-08
-4.37554e-12
1.8596e-08
-4.25297e-12
1.86002e-08
-4.13443e-12
1.86042e-08
-4.01891e-12
1.86081e-08
-3.90804e-12
1.86119e-08
-3.79896e-12
1.86156e-08
-3.69472e-12
1.86192e-08
-3.59116e-12
1.86227e-08
-3.49207e-12
1.8626e-08
-3.393e-12
1.86293e-08
-3.2976e-12
1.86325e-08
-3.20217e-12
1.86357e-08
-3.10953e-12
1.86387e-08
-3.01759e-12
1.86416e-08
-2.92793e-12
1.86444e-08
-2.84054e-12
1.86472e-08
-2.75562e-12
1.86499e-08
-2.67521e-12
1.86525e-08
-2.59821e-12
1.8655e-08
-2.52806e-12
1.86575e-08
-2.46252e-12
1.86599e-08
-2.40544e-12
1.86622e-08
-2.35344e-12
1.86645e-08
-2.30969e-12
1.86668e-08
-2.26984e-12
1.8669e-08
-2.23545e-12
1.86712e-08
-2.20166e-12
1.86734e-08
-2.16796e-12
1.86755e-08
-2.12997e-12
1.86776e-08
-2.08514e-12
1.86797e-08
-2.03094e-12
1.86816e-08
-1.96337e-12
1.86835e-08
-1.88285e-12
1.86853e-08
-1.78505e-12
1.8687e-08
-1.67358e-12
1.86885e-08
-1.54499e-12
1.86899e-08
-1.40563e-12
1.86912e-08
-1.25328e-12
1.86923e-08
-1.09634e-12
1.86932e-08
-9.3314e-13
1.8694e-08
-7.7351e-13
1.86946e-08
-6.14967e-13
1.8695e-08
-4.68046e-13
1.86954e-08
-3.28426e-13
1.86956e-08
-2.06543e-13
1.86957e-08
-9.58051e-14
1.86957e-08
-5.9692e-15
1.86956e-08
7.17141e-14
1.86955e-08
1.2829e-13
1.86953e-08
1.74275e-13
1.86951e-08
2.01227e-13
1.86949e-08
2.20824e-13
1.86947e-08
2.24835e-13
1.86944e-08
2.25304e-13
1.86942e-08
2.14148e-13
1.8694e-08
2.02758e-13
1.86938e-08
1.83921e-13
1.86937e-08
1.66292e-13
1.86935e-08
1.46551e-13
1.86934e-08
1.25422e-13
1.86933e-08
1.10954e-13
1.86932e-08
8.64177e-14
1.86931e-08
8.11014e-14
1.86931e-08
5.47569e-14
1.8693e-08
5.52643e-14
1.8693e-08
3.5325e-14
1.86929e-08
3.11819e-14
1.86929e-08
2.57049e-14
1.86929e-08
1.4658e-14
1.86929e-08
1.48661e-14
1.86929e-08
1.15695e-14
1.86929e-08
1.97485e-15
1.86929e-08
1.18172e-14
1.86929e-08
-5.61341e-15
1.86929e-08
1.5832e-14
1.86929e-08
-3.82883e-14
1.86928e-08
5.79748e-14
-1.43184e-13
1.31372e-08
-1.24804e-09
1.35107e-08
-7.8956e-10
1.37872e-08
-5.27128e-10
1.40065e-08
-4.53278e-10
1.41886e-08
-3.55849e-10
1.43495e-08
-3.26139e-10
1.44961e-08
-2.90913e-10
1.46316e-08
-2.7213e-10
1.47587e-08
-2.53595e-10
1.48786e-08
-2.40214e-10
1.49927e-08
-2.27917e-10
1.51016e-08
-2.17918e-10
1.5206e-08
-2.08754e-10
1.53065e-08
-2.00959e-10
1.54033e-08
-1.93651e-10
1.54969e-08
-1.87311e-10
1.55875e-08
-1.81193e-10
1.56754e-08
-1.75827e-10
1.57606e-08
-1.70501e-10
1.58434e-08
-1.65795e-10
1.59239e-08
-1.61011e-10
1.60022e-08
-1.56762e-10
1.60782e-08
-1.52363e-10
1.61523e-08
-1.4844e-10
1.62244e-08
-1.44327e-10
1.62946e-08
-1.40648e-10
1.63628e-08
-1.36761e-10
1.64293e-08
-1.33276e-10
1.64939e-08
-1.29578e-10
1.65569e-08
-1.26258e-10
1.66181e-08
-1.22731e-10
1.66777e-08
-1.19558e-10
1.67356e-08
-1.1619e-10
1.6792e-08
-1.13155e-10
1.68468e-08
-1.0994e-10
1.69001e-08
-1.07039e-10
1.69519e-08
-1.03971e-10
1.70023e-08
-1.01201e-10
1.70512e-08
-9.82783e-11
1.70989e-08
-9.56378e-11
1.71451e-08
-9.28563e-11
1.71901e-08
-9.03428e-11
1.72337e-08
-8.76999e-11
1.72762e-08
-8.53105e-11
1.73174e-08
-8.28033e-11
1.73575e-08
-8.05341e-11
1.73964e-08
-7.81598e-11
1.74342e-08
-7.6006e-11
1.74709e-08
-7.37614e-11
1.75066e-08
-7.17179e-11
1.75412e-08
-6.95994e-11
1.75748e-08
-6.76612e-11
1.76075e-08
-6.56642e-11
1.76393e-08
-6.38268e-11
1.76701e-08
-6.19456e-11
1.77e-08
-6.02054e-11
1.77291e-08
-5.84336e-11
1.77573e-08
-5.67873e-11
1.77847e-08
-5.5118e-11
1.78114e-08
-5.35627e-11
1.78372e-08
-5.19892e-11
1.78623e-08
-5.05217e-11
1.78867e-08
-4.90376e-11
1.79104e-08
-4.76543e-11
1.79334e-08
-4.62542e-11
1.79558e-08
-4.4951e-11
1.79775e-08
-4.363e-11
1.79985e-08
-4.24025e-11
1.8019e-08
-4.11565e-11
1.80389e-08
-4.00002e-11
1.80582e-08
-3.88253e-11
1.8077e-08
-3.77358e-11
1.80952e-08
-3.66283e-11
1.81129e-08
-3.56014e-11
1.81301e-08
-3.45577e-11
1.81468e-08
-3.35898e-11
1.8163e-08
-3.26062e-11
1.81787e-08
-3.16938e-11
1.8194e-08
-3.07668e-11
1.82089e-08
-2.99068e-11
1.82233e-08
-2.9033e-11
1.82373e-08
-2.82225e-11
1.8251e-08
-2.73987e-11
1.82642e-08
-2.66347e-11
1.82771e-08
-2.58581e-11
1.82896e-08
-2.51378e-11
1.83017e-08
-2.44058e-11
1.83135e-08
-2.37264e-11
1.83249e-08
-2.30367e-11
1.83361e-08
-2.23956e-11
1.83469e-08
-2.17458e-11
1.83574e-08
-2.11406e-11
1.83676e-08
-2.05286e-11
1.83775e-08
-1.99571e-11
1.83872e-08
-1.93807e-11
1.83965e-08
-1.88408e-11
1.84056e-08
-1.82982e-11
1.84145e-08
-1.77879e-11
1.84231e-08
-1.7277e-11
1.84314e-08
-1.67948e-11
1.84395e-08
-1.63137e-11
1.84474e-08
-1.58581e-11
1.84551e-08
-1.54049e-11
1.84625e-08
-1.49745e-11
1.84697e-08
-1.45474e-11
1.84768e-08
-1.41408e-11
1.84836e-08
-1.3738e-11
1.84902e-08
-1.33539e-11
1.84967e-08
-1.29741e-11
1.85029e-08
-1.26114e-11
1.8509e-08
-1.22535e-11
1.8515e-08
-1.1911e-11
1.85207e-08
-1.15738e-11
1.85263e-08
-1.12504e-11
1.85317e-08
-1.09324e-11
1.8537e-08
-1.06267e-11
1.85422e-08
-1.03265e-11
1.85471e-08
-1.00371e-11
1.8552e-08
-9.75344e-12
1.85567e-08
-9.47946e-12
1.85613e-08
-9.21199e-12
1.85657e-08
-8.95284e-12
1.85701e-08
-8.70166e-12
1.85743e-08
-8.45699e-12
1.85784e-08
-8.22206e-12
1.85823e-08
-7.99133e-12
1.85862e-08
-7.77176e-12
1.85899e-08
-7.55382e-12
1.85936e-08
-7.3476e-12
1.85971e-08
-7.14072e-12
1.86006e-08
-6.94495e-12
1.8604e-08
-6.74708e-12
1.86072e-08
-6.55883e-12
1.86104e-08
-6.36824e-12
1.86135e-08
-6.18553e-12
1.86164e-08
-6.0018e-12
1.86193e-08
-5.82484e-12
1.86221e-08
-5.64984e-12
1.86249e-08
-5.48191e-12
1.86275e-08
-5.32026e-12
1.86301e-08
-5.16749e-12
1.86326e-08
-5.02567e-12
1.8635e-08
-4.89512e-12
1.86374e-08
-4.77889e-12
1.86397e-08
-4.67505e-12
1.8642e-08
-4.58546e-12
1.86442e-08
-4.50621e-12
1.86464e-08
-4.4361e-12
1.86486e-08
-4.37011e-12
1.86507e-08
-4.30299e-12
1.86528e-08
-4.23047e-12
1.86549e-08
-4.14322e-12
1.86569e-08
-4.04045e-12
1.86588e-08
-3.90982e-12
1.86607e-08
-3.75616e-12
1.86625e-08
-3.5665e-12
1.86642e-08
-3.35179e-12
1.86657e-08
-3.10082e-12
1.86672e-08
-2.82988e-12
1.86684e-08
-2.53034e-12
1.86696e-08
-2.22266e-12
1.86705e-08
-1.89934e-12
1.86713e-08
-1.58387e-12
1.8672e-08
-1.2673e-12
1.86725e-08
-9.74675e-13
1.86729e-08
-6.93486e-13
1.86731e-08
-4.4876e-13
1.86732e-08
-2.23457e-13
1.86733e-08
-4.14145e-14
1.86732e-08
1.18847e-13
1.86731e-08
2.34885e-13
1.8673e-08
3.32009e-13
1.86728e-08
3.88549e-13
1.86726e-08
4.32538e-13
1.86723e-08
4.42429e-13
1.86721e-08
4.47438e-13
1.86719e-08
4.26017e-13
1.86717e-08
4.06438e-13
1.86715e-08
3.68777e-13
1.86713e-08
3.35786e-13
1.86712e-08
2.95796e-13
1.86711e-08
2.54837e-13
1.8671e-08
2.2526e-13
1.86709e-08
1.76769e-13
1.86708e-08
1.65213e-13
1.86707e-08
1.13307e-13
1.86707e-08
1.12395e-13
1.86706e-08
7.42795e-14
1.86706e-08
6.33012e-14
1.86706e-08
5.40798e-14
1.86705e-08
3.02731e-14
1.86705e-08
3.12337e-14
1.86705e-08
2.35153e-14
1.86705e-08
5.95866e-15
1.86705e-08
2.20747e-14
1.86705e-08
-7.5377e-15
1.86705e-08
2.62275e-14
1.86705e-08
-6.03525e-14
1.86705e-08
4.50435e-14
-3.84258e-13
1.31378e-08
-1.88585e-09
1.35117e-08
-1.16349e-09
1.37883e-08
-8.03651e-10
1.40076e-08
-6.72637e-10
1.41897e-08
-5.37897e-10
1.43506e-08
-4.8704e-10
1.44973e-08
-4.37608e-10
1.46327e-08
-4.07551e-10
1.47599e-08
-3.80789e-10
1.48798e-08
-3.60133e-10
1.49939e-08
-3.42015e-10
1.51028e-08
-3.26817e-10
1.52072e-08
-3.13168e-10
1.53076e-08
-3.01384e-10
1.54044e-08
-2.90434e-10
1.5498e-08
-2.80856e-10
1.55884e-08
-2.71654e-10
1.56761e-08
-2.63537e-10
1.57611e-08
-2.55505e-10
1.58437e-08
-2.48374e-10
1.59239e-08
-2.4115e-10
1.60018e-08
-2.34702e-10
1.60775e-08
-2.28054e-10
1.61511e-08
-2.22099e-10
1.62227e-08
-2.15883e-10
1.62924e-08
-2.10301e-10
1.636e-08
-2.0443e-10
1.64259e-08
-1.99147e-10
1.64899e-08
-1.9357e-10
1.65522e-08
-1.88543e-10
1.66127e-08
-1.83229e-10
1.66715e-08
-1.78433e-10
1.67287e-08
-1.73366e-10
1.67844e-08
-1.68786e-10
1.68384e-08
-1.63955e-10
1.68909e-08
-1.59584e-10
1.69419e-08
-1.54981e-10
1.69915e-08
-1.50814e-10
1.70397e-08
-1.46434e-10
1.70865e-08
-1.42467e-10
1.7132e-08
-1.38303e-10
1.71762e-08
-1.34531e-10
1.7219e-08
-1.30579e-10
1.72607e-08
-1.26998e-10
1.73012e-08
-1.23252e-10
1.73405e-08
-1.19854e-10
1.73786e-08
-1.1631e-10
1.74157e-08
-1.13088e-10
1.74517e-08
-1.0974e-10
1.74867e-08
-1.06685e-10
1.75206e-08
-1.03527e-10
1.75536e-08
-1.00632e-10
1.75856e-08
-9.76567e-11
1.76166e-08
-9.49142e-11
1.76468e-08
-9.21125e-11
1.76761e-08
-8.95165e-11
1.77046e-08
-8.68787e-11
1.77322e-08
-8.44241e-11
1.7759e-08
-8.19399e-11
1.77851e-08
-7.96219e-11
1.78104e-08
-7.72809e-11
1.7835e-08
-7.50946e-11
1.78588e-08
-7.28873e-11
1.7882e-08
-7.0827e-11
1.79045e-08
-6.87452e-11
1.79263e-08
-6.68047e-11
1.79475e-08
-6.48411e-11
1.79681e-08
-6.30137e-11
1.79881e-08
-6.1162e-11
1.80076e-08
-5.94408e-11
1.80265e-08
-5.76951e-11
1.80448e-08
-5.60735e-11
1.80626e-08
-5.44283e-11
1.80799e-08
-5.29001e-11
1.80967e-08
-5.13498e-11
1.8113e-08
-4.99096e-11
1.81288e-08
-4.84487e-11
1.81442e-08
-4.70914e-11
1.81592e-08
-4.57146e-11
1.81737e-08
-4.44354e-11
1.81878e-08
-4.31376e-11
1.82015e-08
-4.19321e-11
1.82148e-08
-4.07088e-11
1.82278e-08
-3.95725e-11
1.82403e-08
-3.84194e-11
1.82526e-08
-3.73481e-11
1.82644e-08
-3.62613e-11
1.82759e-08
-3.52509e-11
1.82871e-08
-3.42268e-11
1.8298e-08
-3.32735e-11
1.83086e-08
-3.23087e-11
1.83188e-08
-3.14089e-11
1.83288e-08
-3.05001e-11
1.83385e-08
-2.96504e-11
1.83479e-08
-2.87947e-11
1.83571e-08
-2.79919e-11
1.8366e-08
-2.71863e-11
1.83746e-08
-2.64276e-11
1.8383e-08
-2.56691e-11
1.83911e-08
-2.49521e-11
1.83991e-08
-2.42379e-11
1.84068e-08
-2.35605e-11
1.84143e-08
-2.28877e-11
1.84215e-08
-2.22479e-11
1.84286e-08
-2.16136e-11
1.84355e-08
-2.10092e-11
1.84421e-08
-2.04112e-11
1.84486e-08
-1.98402e-11
1.84549e-08
-1.92763e-11
1.8461e-08
-1.87371e-11
1.8467e-08
-1.82057e-11
1.84728e-08
-1.76965e-11
1.84784e-08
-1.71959e-11
1.84839e-08
-1.67151e-11
1.84892e-08
-1.6243e-11
1.84943e-08
-1.57885e-11
1.84994e-08
-1.53428e-11
1.85042e-08
-1.49127e-11
1.8509e-08
-1.44916e-11
1.85136e-08
-1.40843e-11
1.85181e-08
-1.36872e-11
1.85224e-08
-1.33018e-11
1.85266e-08
-1.29289e-11
1.85307e-08
-1.25649e-11
1.85347e-08
-1.22161e-11
1.85386e-08
-1.18728e-11
1.85424e-08
-1.15469e-11
1.85461e-08
-1.12227e-11
1.85496e-08
-1.09168e-11
1.85531e-08
-1.06091e-11
1.85565e-08
-1.03189e-11
1.85597e-08
-1.00249e-11
1.85629e-08
-9.74598e-12
1.8566e-08
-9.46285e-12
1.8569e-08
-9.19224e-12
1.8572e-08
-8.91921e-12
1.85748e-08
-8.65697e-12
1.85775e-08
-8.39651e-12
1.85802e-08
-8.14719e-12
1.85828e-08
-7.90587e-12
1.85853e-08
-7.67835e-12
1.85877e-08
-7.46569e-12
1.85901e-08
-7.27046e-12
1.85924e-08
-7.09521e-12
1.85947e-08
-6.93939e-12
1.85969e-08
-6.80378e-12
1.85991e-08
-6.68501e-12
1.86012e-08
-6.57939e-12
1.86033e-08
-6.48189e-12
1.86054e-08
-6.38271e-12
1.86075e-08
-6.27791e-12
1.86095e-08
-6.15146e-12
1.86114e-08
-6.00431e-12
1.86133e-08
-5.81593e-12
1.86152e-08
-5.59524e-12
1.86169e-08
-5.32073e-12
1.86186e-08
-5.01013e-12
1.86201e-08
-4.64457e-12
1.86216e-08
-4.24964e-12
1.86228e-08
-3.81031e-12
1.8624e-08
-3.35852e-12
1.8625e-08
-2.88101e-12
1.86258e-08
-2.41447e-12
1.86265e-08
-1.94366e-12
1.8627e-08
-1.50776e-12
1.86274e-08
-1.08646e-12
1.86277e-08
-7.19043e-13
1.86278e-08
-3.78604e-13
1.86279e-08
-1.02726e-13
1.86279e-08
1.42103e-13
1.86278e-08
3.20314e-13
1.86276e-08
4.71262e-13
1.86275e-08
5.60478e-13
1.86273e-08
6.31603e-13
1.86271e-08
6.50275e-13
1.86268e-08
6.62184e-13
1.86266e-08
6.32872e-13
1.86264e-08
6.06836e-13
1.86262e-08
5.52095e-13
1.86261e-08
5.04772e-13
1.86259e-08
4.45713e-13
1.86258e-08
3.85357e-13
1.86257e-08
3.41268e-13
1.86256e-08
2.69141e-13
1.86255e-08
2.50972e-13
1.86254e-08
1.74517e-13
1.86254e-08
1.70483e-13
1.86253e-08
1.16012e-13
1.86253e-08
9.60782e-14
1.86253e-08
8.43878e-14
1.86253e-08
4.67572e-14
1.86252e-08
4.89087e-14
1.86252e-08
3.54195e-14
1.86252e-08
1.22963e-14
1.86252e-08
3.00868e-14
1.86252e-08
-4.80431e-15
1.86252e-08
2.96427e-14
1.86252e-08
-6.81331e-14
1.86253e-08
9.80803e-15
-6.73916e-13
1.31389e-08
-2.52473e-09
1.35135e-08
-1.53809e-09
1.37899e-08
-1.08011e-09
1.40093e-08
-8.91957e-10
1.41913e-08
-7.19947e-10
1.43522e-08
-6.4795e-10
1.44989e-08
-5.84323e-10
1.46344e-08
-5.42995e-10
1.47616e-08
-5.08009e-10
1.48815e-08
-4.80077e-10
1.49957e-08
-4.56132e-10
1.51046e-08
-4.35721e-10
1.5209e-08
-4.17565e-10
1.53093e-08
-4.01759e-10
1.5406e-08
-3.87127e-10
1.54994e-08
-3.74259e-10
1.55897e-08
-3.61915e-10
1.56771e-08
-3.50979e-10
1.57618e-08
-3.40174e-10
1.5844e-08
-3.30542e-10
1.59236e-08
-3.20804e-10
1.6001e-08
-3.12082e-10
1.60761e-08
-3.03114e-10
1.6149e-08
-2.95055e-10
1.62198e-08
-2.86673e-10
1.62886e-08
-2.79122e-10
1.63554e-08
-2.71213e-10
1.64203e-08
-2.64077e-10
1.64834e-08
-2.56576e-10
1.65446e-08
-2.49798e-10
1.6604e-08
-2.42664e-10
1.66618e-08
-2.36211e-10
1.67179e-08
-2.29422e-10
1.67724e-08
-2.23273e-10
1.68252e-08
-2.16812e-10
1.68766e-08
-2.10957e-10
1.69264e-08
-2.04813e-10
1.69749e-08
-1.99241e-10
1.70218e-08
-1.93404e-10
1.70675e-08
-1.88109e-10
1.71117e-08
-1.8257e-10
1.71547e-08
-1.77545e-10
1.71965e-08
-1.72295e-10
1.7237e-08
-1.67531e-10
1.72763e-08
-1.62561e-10
1.73145e-08
-1.58047e-10
1.73515e-08
-1.5335e-10
1.73875e-08
-1.49075e-10
1.74224e-08
-1.44643e-10
1.74563e-08
-1.40594e-10
1.74892e-08
-1.36417e-10
1.75212e-08
-1.32583e-10
1.75522e-08
-1.2865e-10
1.75823e-08
-1.25022e-10
1.76115e-08
-1.21321e-10
1.76399e-08
-1.17889e-10
1.76674e-08
-1.14407e-10
1.76941e-08
-1.11164e-10
1.77201e-08
-1.07886e-10
1.77453e-08
-1.04826e-10
1.77697e-08
-1.01738e-10
1.77935e-08
-9.88532e-11
1.78165e-08
-9.59434e-11
1.78389e-08
-9.32256e-11
1.78607e-08
-9.04821e-11
1.78818e-08
-8.79232e-11
1.79023e-08
-8.53364e-11
1.79222e-08
-8.29273e-11
1.79415e-08
-8.04885e-11
1.79603e-08
-7.822e-11
1.79785e-08
-7.59215e-11
1.79963e-08
-7.37847e-11
1.80134e-08
-7.1619e-11
1.80302e-08
-6.96057e-11
1.80464e-08
-6.75654e-11
1.80621e-08
-6.56682e-11
1.80774e-08
-6.37459e-11
1.80923e-08
-6.19581e-11
1.81067e-08
-6.01466e-11
1.81207e-08
-5.84621e-11
1.81344e-08
-5.67548e-11
1.81476e-08
-5.51674e-11
1.81604e-08
-5.35582e-11
1.81729e-08
-5.20621e-11
1.81851e-08
-5.05453e-11
1.81969e-08
-4.9135e-11
1.82083e-08
-4.77055e-11
1.82194e-08
-4.63754e-11
1.82302e-08
-4.50285e-11
1.82407e-08
-4.37737e-11
1.82509e-08
-4.25048e-11
1.82608e-08
-4.13204e-11
1.82705e-08
-4.01253e-11
1.82798e-08
-3.90069e-11
1.82889e-08
-3.78816e-11
1.82977e-08
-3.6825e-11
1.83063e-08
-3.57655e-11
1.83147e-08
-3.47671e-11
1.83228e-08
-3.37696e-11
1.83306e-08
-3.28261e-11
1.83383e-08
-3.18867e-11
1.83457e-08
-3.09954e-11
1.83529e-08
-3.01105e-11
1.836e-08
-2.92686e-11
1.83668e-08
-2.84344e-11
1.83734e-08
-2.76392e-11
1.83798e-08
-2.68526e-11
1.83861e-08
-2.61014e-11
1.83922e-08
-2.53598e-11
1.83981e-08
-2.46502e-11
1.84038e-08
-2.39513e-11
1.84094e-08
-2.32813e-11
1.84149e-08
-2.26229e-11
1.84201e-08
-2.19902e-11
1.84253e-08
-2.13694e-11
1.84302e-08
-2.07714e-11
1.84351e-08
-2.01853e-11
1.84398e-08
-1.96194e-11
1.84444e-08
-1.90656e-11
1.84488e-08
-1.85297e-11
1.84531e-08
-1.80075e-11
1.84573e-08
-1.75003e-11
1.84614e-08
-1.70098e-11
1.84654e-08
-1.65307e-11
1.84692e-08
-1.60719e-11
1.8473e-08
-1.562e-11
1.84766e-08
-1.51912e-11
1.84802e-08
-1.47645e-11
1.84836e-08
-1.43622e-11
1.8487e-08
-1.39576e-11
1.84902e-08
-1.35761e-11
1.84934e-08
-1.31895e-11
1.84965e-08
-1.28232e-11
1.84994e-08
-1.24511e-11
1.85024e-08
-1.20957e-11
1.85052e-08
-1.17369e-11
1.85079e-08
-1.13923e-11
1.85106e-08
-1.10495e-11
1.85131e-08
-1.07214e-11
1.85156e-08
-1.0403e-11
1.85181e-08
-1.01027e-11
1.85204e-08
-9.82108e-12
1.85227e-08
-9.56246e-12
1.85249e-08
-9.3293e-12
1.85271e-08
-9.12214e-12
1.85293e-08
-8.94113e-12
1.85314e-08
-8.78329e-12
1.85334e-08
-8.64285e-12
1.85354e-08
-8.51476e-12
1.85375e-08
-8.38509e-12
1.85394e-08
-8.25016e-12
1.85414e-08
-8.08767e-12
1.85433e-08
-7.90014e-12
1.85451e-08
-7.65916e-12
1.85469e-08
-7.37741e-12
1.85486e-08
-7.0251e-12
1.85502e-08
-6.62616e-12
1.85517e-08
-6.15428e-12
1.85531e-08
-5.64362e-12
1.85544e-08
-5.07297e-12
1.85555e-08
-4.48494e-12
1.85565e-08
-3.86081e-12
1.85573e-08
-3.24968e-12
1.8558e-08
-2.63041e-12
1.85585e-08
-2.05566e-12
1.8559e-08
-1.49784e-12
1.85592e-08
-1.0099e-12
1.85594e-08
-5.55746e-13
1.85595e-08
-1.86177e-13
1.85595e-08
1.43551e-13
1.85594e-08
3.85274e-13
1.85593e-08
5.91528e-13
1.85592e-08
7.15602e-13
1.8559e-08
8.1587e-13
1.85588e-08
8.45761e-13
1.85586e-08
8.66597e-13
1.85584e-08
8.31657e-13
1.85582e-08
8.00876e-13
1.8558e-08
7.3091e-13
1.85578e-08
6.70494e-13
1.85577e-08
5.9371e-13
1.85576e-08
5.14798e-13
1.85575e-08
4.56858e-13
1.85574e-08
3.61984e-13
1.85573e-08
3.36775e-13
1.85572e-08
2.37308e-13
1.85572e-08
2.28528e-13
1.85571e-08
1.59679e-13
1.85571e-08
1.29009e-13
1.8557e-08
1.16109e-13
1.8557e-08
6.36483e-14
1.8557e-08
6.78935e-14
1.8557e-08
4.67559e-14
1.8557e-08
2.11142e-14
1.8557e-08
3.56847e-14
1.8557e-08
2.21322e-15
1.8557e-08
2.77302e-14
1.8557e-08
-6.83615e-14
1.8557e-08
-2.67907e-14
-9.81417e-13
1.31404e-08
-3.16513e-09
1.35159e-08
-1.91362e-09
1.37923e-08
-1.35644e-09
1.40115e-08
-1.1112e-09
1.41935e-08
-9.01978e-10
1.43544e-08
-8.08864e-10
1.45012e-08
-7.31061e-10
1.46367e-08
-6.78469e-10
1.47639e-08
-6.35264e-10
1.48839e-08
-6.00051e-10
1.4998e-08
-5.70268e-10
1.51069e-08
-5.44619e-10
1.52113e-08
-5.2192e-10
1.53116e-08
-5.0204e-10
1.54081e-08
-4.83663e-10
1.55013e-08
-4.67428e-10
1.55912e-08
-4.5186e-10
1.56782e-08
-4.38011e-10
1.57624e-08
-4.24337e-10
1.5844e-08
-4.12102e-10
1.59229e-08
-3.99753e-10
1.59995e-08
-3.88655e-10
1.60736e-08
-3.77274e-10
1.61456e-08
-3.67016e-10
1.62153e-08
-3.56384e-10
1.6283e-08
-3.46782e-10
1.63485e-08
-3.36766e-10
1.64122e-08
-3.27708e-10
1.64738e-08
-3.18228e-10
1.65337e-08
-3.09645e-10
1.65916e-08
-3.00651e-10
1.66479e-08
-2.925e-10
1.67025e-08
-2.83961e-10
1.67554e-08
-2.76217e-10
1.68067e-08
-2.68111e-10
1.68565e-08
-2.60754e-10
1.69048e-08
-2.53064e-10
1.69516e-08
-2.46082e-10
1.6997e-08
-2.38792e-10
1.70411e-08
-2.32173e-10
1.70838e-08
-2.25268e-10
1.71252e-08
-2.18999e-10
1.71654e-08
-2.12467e-10
1.72044e-08
-2.06533e-10
1.72422e-08
-2.00361e-10
1.72789e-08
-1.94748e-10
1.73145e-08
-1.88923e-10
1.7349e-08
-1.83615e-10
1.73825e-08
-1.78125e-10
1.7415e-08
-1.73105e-10
1.74465e-08
-1.67937e-10
1.74771e-08
-1.63189e-10
1.75068e-08
-1.58328e-10
1.75356e-08
-1.5384e-10
1.75636e-08
-1.49269e-10
1.75907e-08
-1.45028e-10
1.7617e-08
-1.4073e-10
1.76426e-08
-1.36726e-10
1.76674e-08
-1.32683e-10
1.76915e-08
-1.28907e-10
1.77148e-08
-1.25101e-10
1.77375e-08
-1.21543e-10
1.77595e-08
-1.17958e-10
1.77809e-08
-1.14609e-10
1.78017e-08
-1.1123e-10
1.78218e-08
-1.08078e-10
1.78414e-08
-1.04893e-10
1.78604e-08
-1.01926e-10
1.78788e-08
-9.89253e-11
1.78967e-08
-9.61326e-11
1.79141e-08
-9.33051e-11
1.7931e-08
-9.06752e-11
1.79474e-08
-8.80118e-11
1.79633e-08
-8.55345e-11
1.79788e-08
-8.30258e-11
1.79938e-08
-8.06919e-11
1.80084e-08
-7.83288e-11
1.80226e-08
-7.61299e-11
1.80363e-08
-7.39034e-11
1.80497e-08
-7.18318e-11
1.80627e-08
-6.97337e-11
1.80753e-08
-6.77818e-11
1.80875e-08
-6.58045e-11
1.80994e-08
-6.3965e-11
1.8111e-08
-6.21015e-11
1.81222e-08
-6.03676e-11
1.81331e-08
-5.86116e-11
1.81437e-08
-5.69765e-11
1.8154e-08
-5.5322e-11
1.8164e-08
-5.37795e-11
1.81737e-08
-5.22209e-11
1.81832e-08
-5.07651e-11
1.81924e-08
-4.92972e-11
1.82013e-08
-4.79226e-11
1.82099e-08
-4.65405e-11
1.82183e-08
-4.52419e-11
1.82265e-08
-4.39407e-11
1.82345e-08
-4.27137e-11
1.82422e-08
-4.14885e-11
1.82497e-08
-4.03291e-11
1.8257e-08
-3.91753e-11
1.82641e-08
-3.80801e-11
1.82709e-08
-3.69932e-11
1.82776e-08
-3.59587e-11
1.82841e-08
-3.49342e-11
1.82905e-08
-3.39571e-11
1.82966e-08
-3.2991e-11
1.83026e-08
-3.20679e-11
1.83084e-08
-3.1157e-11
1.8314e-08
-3.02852e-11
1.83195e-08
-2.94267e-11
1.83248e-08
-2.86036e-11
1.833e-08
-2.77947e-11
1.8335e-08
-2.70175e-11
1.83399e-08
-2.62548e-11
1.83446e-08
-2.55202e-11
1.83492e-08
-2.48002e-11
1.83537e-08
-2.4105e-11
1.83581e-08
-2.34249e-11
1.83623e-08
-2.27664e-11
1.83664e-08
-2.2125e-11
1.83704e-08
-2.15018e-11
1.83743e-08
-2.08992e-11
1.83781e-08
-2.03104e-11
1.83818e-08
-1.97467e-11
1.83854e-08
-1.91913e-11
1.83888e-08
-1.86645e-11
1.83922e-08
-1.81403e-11
1.83955e-08
-1.76459e-11
1.83987e-08
-1.7149e-11
1.84018e-08
-1.66805e-11
1.84048e-08
-1.62061e-11
1.84077e-08
-1.57564e-11
1.84106e-08
-1.53e-11
1.84134e-08
-1.48638e-11
1.8416e-08
-1.44235e-11
1.84186e-08
-1.40004e-11
1.84212e-08
-1.35794e-11
1.84236e-08
-1.31759e-11
1.8426e-08
-1.2784e-11
1.84283e-08
-1.24138e-11
1.84306e-08
-1.2066e-11
1.84328e-08
-1.17462e-11
1.84349e-08
-1.14571e-11
1.8437e-08
-1.12001e-11
1.8439e-08
-1.0975e-11
1.8441e-08
-1.07791e-11
1.84429e-08
-1.06051e-11
1.84449e-08
-1.04476e-11
1.84468e-08
-1.02893e-11
1.84487e-08
-1.01264e-11
1.84505e-08
-9.93103e-12
1.84523e-08
-9.70697e-12
1.84541e-08
-9.41851e-12
1.84558e-08
-9.08153e-12
1.84574e-08
-8.65856e-12
1.8459e-08
-8.17895e-12
1.84604e-08
-7.60944e-12
1.84618e-08
-6.99186e-12
1.8463e-08
-6.29924e-12
1.84641e-08
-5.58393e-12
1.84651e-08
-4.82211e-12
1.84659e-08
-4.07438e-12
1.84666e-08
-3.3142e-12
1.84671e-08
-2.60682e-12
1.84675e-08
-1.91798e-12
1.84678e-08
-1.3135e-12
1.8468e-08
-7.4892e-13
1.84681e-08
-2.87466e-13
1.84681e-08
1.25903e-13
1.84681e-08
4.31149e-13
1.8468e-08
6.92983e-13
1.84679e-08
8.53179e-13
1.84677e-08
9.83813e-13
1.84675e-08
1.02685e-12
1.84673e-08
1.05823e-12
1.84671e-08
1.01975e-12
1.84669e-08
9.85832e-13
1.84668e-08
9.0254e-13
1.84666e-08
8.30399e-13
1.84665e-08
7.37358e-13
1.84663e-08
6.4106e-13
1.84662e-08
5.69998e-13
1.84661e-08
4.53725e-13
1.84661e-08
4.2108e-13
1.8466e-08
3.00504e-13
1.84659e-08
2.85564e-13
1.84659e-08
2.04344e-13
1.84659e-08
1.61574e-13
1.84658e-08
1.48639e-13
1.84658e-08
8.0537e-14
1.84658e-08
8.79531e-14
1.84658e-08
5.72874e-14
1.84658e-08
3.20437e-14
1.84658e-08
3.93272e-14
1.84658e-08
1.21728e-14
1.84658e-08
2.31881e-14
1.84658e-08
-6.65857e-14
1.84658e-08
-5.72549e-14
-1.28661e-12
1.31423e-08
-3.80746e-09
1.35191e-08
-2.29034e-09
1.37952e-08
-1.63261e-09
1.40143e-08
-1.33033e-09
1.41963e-08
-1.08397e-09
1.43573e-08
-9.69774e-10
1.4504e-08
-8.77826e-10
1.46395e-08
-8.13979e-10
1.47668e-08
-7.62559e-10
1.48868e-08
-7.20056e-10
1.5001e-08
-6.84412e-10
1.51098e-08
-6.53484e-10
1.52141e-08
-6.26186e-10
1.53142e-08
-6.02154e-10
1.54105e-08
-5.79943e-10
1.55033e-08
-5.60234e-10
1.55928e-08
-5.41328e-10
1.56792e-08
-5.24441e-10
1.57626e-08
-5.07775e-10
1.58433e-08
-4.92806e-10
1.59213e-08
-4.77722e-10
1.59968e-08
-4.64121e-10
1.60697e-08
-4.50214e-10
1.61403e-08
-4.37643e-10
1.62086e-08
-4.24663e-10
1.62748e-08
-4.12913e-10
1.63387e-08
-4.00708e-10
1.64006e-08
-3.89651e-10
1.64605e-08
-3.78128e-10
1.65186e-08
-3.6768e-10
1.65747e-08
-3.5678e-10
1.66291e-08
-3.4689e-10
1.66817e-08
-3.36573e-10
1.67327e-08
-3.27206e-10
1.6782e-08
-3.1744e-10
1.68298e-08
-3.0857e-10
1.68761e-08
-2.99331e-10
1.6921e-08
-2.90936e-10
1.69644e-08
-2.82202e-10
1.70065e-08
-2.74264e-10
1.70472e-08
-2.66011e-10
1.70867e-08
-2.58511e-10
1.7125e-08
-2.5072e-10
1.71621e-08
-2.43638e-10
1.7198e-08
-2.3629e-10
1.72329e-08
-2.29605e-10
1.72666e-08
-2.22682e-10
1.72994e-08
-2.1637e-10
1.73311e-08
-2.09855e-10
1.73619e-08
-2.03895e-10
1.73917e-08
-1.97771e-10
1.74207e-08
-1.92142e-10
1.74487e-08
-1.86388e-10
1.7476e-08
-1.81073e-10
1.75024e-08
-1.75669e-10
1.7528e-08
-1.70652e-10
1.75528e-08
-1.65575e-10
1.7577e-08
-1.60844e-10
1.76004e-08
-1.56071e-10
1.76231e-08
-1.51613e-10
1.76451e-08
-1.47123e-10
1.76665e-08
-1.42925e-10
1.76872e-08
-1.38698e-10
1.77073e-08
-1.34749e-10
1.77269e-08
-1.30767e-10
1.77459e-08
-1.27053e-10
1.77643e-08
-1.23302e-10
1.77821e-08
-1.19808e-10
1.77995e-08
-1.16275e-10
1.78163e-08
-1.12986e-10
1.78327e-08
-1.09659e-10
1.78486e-08
-1.06563e-10
1.7864e-08
-1.0343e-10
1.7879e-08
-1.00515e-10
1.78935e-08
-9.7564e-11
1.79077e-08
-9.48183e-11
1.79214e-08
-9.20396e-11
1.79347e-08
-8.94533e-11
1.79476e-08
-8.68358e-11
1.79602e-08
-8.43996e-11
1.79724e-08
-8.19334e-11
1.79842e-08
-7.96384e-11
1.79958e-08
-7.73146e-11
1.80069e-08
-7.51521e-11
1.80178e-08
-7.29624e-11
1.80284e-08
-7.09241e-11
1.80386e-08
-6.88609e-11
1.80486e-08
-6.6939e-11
1.80582e-08
-6.49952e-11
1.80676e-08
-6.31822e-11
1.80768e-08
-6.13513e-11
1.80857e-08
-5.96404e-11
1.80943e-08
-5.79161e-11
1.81026e-08
-5.63007e-11
1.81108e-08
-5.46772e-11
1.81187e-08
-5.31513e-11
1.81264e-08
-5.16228e-11
1.81338e-08
-5.0181e-11
1.81411e-08
-4.8742e-11
1.81481e-08
-4.73797e-11
1.8155e-08
-4.60245e-11
1.81617e-08
-4.47377e-11
1.81681e-08
-4.34609e-11
1.81744e-08
-4.22456e-11
1.81805e-08
-4.10422e-11
1.81865e-08
-3.98943e-11
1.81922e-08
-3.87594e-11
1.81978e-08
-3.76751e-11
1.82033e-08
-3.66051e-11
1.82086e-08
-3.55809e-11
1.82137e-08
-3.45725e-11
1.82187e-08
-3.36054e-11
1.82236e-08
-3.26553e-11
1.82283e-08
-3.17422e-11
1.82329e-08
-3.08463e-11
1.82374e-08
-2.99835e-11
1.82417e-08
-2.91376e-11
1.82459e-08
-2.83211e-11
1.825e-08
-2.75221e-11
1.8254e-08
-2.67487e-11
1.82579e-08
-2.59951e-11
1.82616e-08
-2.5263e-11
1.82653e-08
-2.4555e-11
1.82688e-08
-2.38633e-11
1.82723e-08
-2.32007e-11
1.82756e-08
-2.25483e-11
1.82789e-08
-2.19291e-11
1.82821e-08
-2.13134e-11
1.82852e-08
-2.07324e-11
1.82882e-08
-2.01491e-11
1.82911e-08
-1.95987e-11
1.82939e-08
-1.90421e-11
1.82967e-08
-1.85139e-11
1.82994e-08
-1.79785e-11
1.8302e-08
-1.74663e-11
1.83045e-08
-1.69498e-11
1.83069e-08
-1.64528e-11
1.83093e-08
-1.59585e-11
1.83116e-08
-1.54839e-11
1.83139e-08
-1.50229e-11
1.8316e-08
-1.45867e-11
1.83181e-08
-1.41763e-11
1.83202e-08
-1.37982e-11
1.83222e-08
-1.34561e-11
1.83242e-08
-1.31513e-11
1.83261e-08
-1.28843e-11
1.83279e-08
-1.2652e-11
1.83298e-08
-1.2446e-11
1.83316e-08
-1.22608e-11
1.83334e-08
-1.20758e-11
1.83351e-08
-1.18873e-11
1.83369e-08
-1.16623e-11
1.83386e-08
-1.14055e-11
1.83402e-08
-1.10747e-11
1.83418e-08
-1.06882e-11
1.83434e-08
-1.02018e-11
1.83448e-08
-9.64928e-12
1.83462e-08
-8.99119e-12
1.83475e-08
-8.27597e-12
1.83487e-08
-7.47148e-12
1.83497e-08
-6.63872e-12
1.83507e-08
-5.74933e-12
1.83515e-08
-4.8743e-12
1.83521e-08
-3.98228e-12
1.83527e-08
-3.15002e-12
1.83531e-08
-2.33739e-12
1.83534e-08
-1.62202e-12
1.83536e-08
-9.51972e-13
1.83537e-08
-4.01967e-13
1.83538e-08
9.2298e-14
1.83537e-08
4.5982e-13
1.83536e-08
7.76346e-13
1.83535e-08
9.73025e-13
1.83534e-08
1.13445e-12
1.83532e-08
1.19201e-12
1.8353e-08
1.23511e-12
1.83529e-08
1.19494e-12
1.83527e-08
1.15934e-12
1.83525e-08
1.06461e-12
1.83524e-08
9.8218e-13
1.83522e-08
8.74436e-13
1.83521e-08
7.62172e-13