/*--------------------------------*- C++ -*----------------------------------*\
| =========                 |                                                 |
| \\      /  F ield         | OpenFOAM: The Open Source CFD Toolbox           |
|  \\    /   O peration     | Version:  2412                                  |
|   \\  /    A nd           | Website:  www.openfoam.com                      |
|    \\/     M anipulation  |                                                 |
\*---------------------------------------------------------------------------*/
FoamFile
{
    version     2.0;
    format      ascii;
    arch        "LSB;label=32;scalar=64";
    class       volVectorField;
    location    "700";
    object      U;
}
// * * * * * * * * * * * * * * * * * * * * * * * * * * * * * * * * * * * * * //

dimensions      [0 1 -1 0 0 0 0];

internalField   nonuniform List<vector> 
8000
(
(0.0500168 -4.09665e-05 0)
(0.0544681 -2.791e-05 0)
(0.0540688 -1.64966e-05 0)
(0.0559709 -1.56412e-05 0)
(0.0562278 -1.15179e-05 0)
(0.0571989 -1.10267e-05 0)
(0.0576374 -9.59123e-06 0)
(0.0583037 -9.11422e-06 0)
(0.0587582 -8.41691e-06 0)
(0.0592997 -8.0175e-06 0)
(0.0597293 -7.58264e-06 0)
(0.0602053 -7.26499e-06 0)
(0.0606044 -6.9515e-06 0)
(0.0610382 -6.6978e-06 0)
(0.0614096 -6.4517e-06 0)
(0.0618121 -6.24365e-06 0)
(0.0621596 -6.03914e-06 0)
(0.0625366 -5.86273e-06 0)
(0.0628635 -5.68537e-06 0)
(0.0632187 -5.53073e-06 0)
(0.0635274 -5.37174e-06 0)
(0.0638631 -5.2322e-06 0)
(0.0641554 -5.08609e-06 0)
(0.0644731 -4.95731e-06 0)
(0.0647502 -4.82068e-06 0)
(0.0650511 -4.69986e-06 0)
(0.065314 -4.57065e-06 0)
(0.0655991 -4.45611e-06 0)
(0.0658485 -4.33311e-06 0)
(0.0661186 -4.22383e-06 0)
(0.066355 -4.10636e-06 0)
(0.0666107 -4.00178e-06 0)
(0.0668348 -3.88948e-06 0)
(0.0670768 -3.78929e-06 0)
(0.0672891 -3.68196e-06 0)
(0.067518 -3.58603e-06 0)
(0.0677189 -3.48354e-06 0)
(0.0679353 -3.3918e-06 0)
(0.0681254 -3.29405e-06 0)
(0.0683299 -3.20646e-06 0)
(0.0685096 -3.11337e-06 0)
(0.0687028 -3.02988e-06 0)
(0.0688726 -2.94137e-06 0)
(0.0690551 -2.86191e-06 0)
(0.0692155 -2.77788e-06 0)
(0.0693878 -2.70233e-06 0)
(0.0695392 -2.62271e-06 0)
(0.0697018 -2.55094e-06 0)
(0.0698447 -2.47563e-06 0)
(0.0699983 -2.40747e-06 0)
(0.0701331 -2.33636e-06 0)
(0.0702781 -2.27167e-06 0)
(0.0704052 -2.2046e-06 0)
(0.070542 -2.14324e-06 0)
(0.0706618 -2.08004e-06 0)
(0.0707911 -2.02189e-06 0)
(0.070904 -1.96234e-06 0)
(0.071026 -1.9073e-06 0)
(0.0711324 -1.85119e-06 0)
(0.0712476 -1.79917e-06 0)
(0.0713478 -1.74626e-06 0)
(0.0714567 -1.69716e-06 0)
(0.071551 -1.64724e-06 0)
(0.0716538 -1.60095e-06 0)
(0.0717428 -1.55384e-06 0)
(0.0718399 -1.51022e-06 0)
(0.0719236 -1.46577e-06 0)
(0.0720153 -1.42468e-06 0)
(0.0720942 -1.38273e-06 0)
(0.0721808 -1.34402e-06 0)
(0.0722551 -1.30446e-06 0)
(0.072337 -1.26798e-06 0)
(0.0724069 -1.23069e-06 0)
(0.0724843 -1.1963e-06 0)
(0.0725502 -1.16115e-06 0)
(0.0726233 -1.12873e-06 0)
(0.0726853 -1.09561e-06 0)
(0.0727544 -1.06505e-06 0)
(0.0728129 -1.03382e-06 0)
(0.0728782 -1.00501e-06 0)
(0.0729332 -9.75581e-07 0)
(0.0729949 -9.48424e-07 0)
(0.0730467 -9.20678e-07 0)
(0.0731051 -8.95075e-07 0)
(0.0731539 -8.6892e-07 0)
(0.0732091 -8.44777e-07 0)
(0.0732551 -8.20126e-07 0)
(0.0733073 -7.97352e-07 0)
(0.0733505 -7.74123e-07 0)
(0.0734 -7.52632e-07 0)
(0.0734406 -7.30749e-07 0)
(0.0734874 -7.10459e-07 0)
(0.0735257 -6.89849e-07 0)
(0.07357 -6.70686e-07 0)
(0.073606 -6.51279e-07 0)
(0.073648 -6.33172e-07 0)
(0.0736818 -6.14901e-07 0)
(0.0737216 -5.97787e-07 0)
(0.0737534 -5.80587e-07 0)
(0.0737911 -5.64412e-07 0)
(0.0738209 -5.48216e-07 0)
(0.0738567 -5.32933e-07 0)
(0.0738847 -5.17676e-07 0)
(0.0739187 -5.03238e-07 0)
(0.073945 -4.88857e-07 0)
(0.0739772 -4.75218e-07 0)
(0.0740019 -4.61656e-07 0)
(0.0740324 -4.48773e-07 0)
(0.0740556 -4.35986e-07 0)
(0.0740846 -4.2382e-07 0)
(0.0741064 -4.1177e-07 0)
(0.0741339 -4.00285e-07 0)
(0.0741543 -3.8893e-07 0)
(0.0741805 -3.78084e-07 0)
(0.0741996 -3.67374e-07 0)
(0.0742244 -3.57121e-07 0)
(0.0742423 -3.47004e-07 0)
(0.074266 -3.37303e-07 0)
(0.0742827 -3.27742e-07 0)
(0.0743052 -3.18562e-07 0)
(0.0743208 -3.09545e-07 0)
(0.0743423 -3.0087e-07 0)
(0.0743569 -2.924e-07 0)
(0.0743772 -2.84218e-07 0)
(0.0743909 -2.76293e-07 0)
(0.0744103 -2.68582e-07 0)
(0.0744231 -2.61168e-07 0)
(0.0744416 -2.53884e-07 0)
(0.0744535 -2.46909e-07 0)
(0.0744711 -2.3999e-07 0)
(0.0744822 -2.33356e-07 0)
(0.074499 -2.26732e-07 0)
(0.0745094 -2.20342e-07 0)
(0.0745254 -2.13961e-07 0)
(0.074535 -2.07755e-07 0)
(0.0745503 -2.01612e-07 0)
(0.0745592 -1.95612e-07 0)
(0.0745737 -1.89783e-07 0)
(0.0745819 -1.84113e-07 0)
(0.0745957 -1.78766e-07 0)
(0.0746033 -1.73643e-07 0)
(0.0746165 -1.68999e-07 0)
(0.0746236 -1.64654e-07 0)
(0.0746361 -1.60893e-07 0)
(0.0746428 -1.57453e-07 0)
(0.074655 -1.54574e-07 0)
(0.0746613 -1.51926e-07 0)
(0.0746731 -1.49642e-07 0)
(0.0746792 -1.47358e-07 0)
(0.0746907 -1.45071e-07 0)
(0.0746966 -1.42452e-07 0)
(0.0747077 -1.39365e-07 0)
(0.0747133 -1.35609e-07 0)
(0.074724 -1.30956e-07 0)
(0.074729 -1.25406e-07 0)
(0.074739 -1.18712e-07 0)
(0.0747433 -1.11092e-07 0)
(0.0747524 -1.02354e-07 0)
(0.0747556 -9.2901e-08 0)
(0.0747636 -8.26214e-08 0)
(0.0747657 -7.2053e-08 0)
(0.0747724 -6.1115e-08 0)
(0.0747732 -5.04364e-08 0)
(0.0747785 -3.98793e-08 0)
(0.0747781 -3.0115e-08 0)
(0.0747823 -2.08791e-08 0)
(0.0747807 -1.28348e-08 0)
(0.0747839 -5.56305e-09 0)
(0.0747815 3.1783e-10 0)
(0.074784 5.37117e-09 0)
(0.074781 9.03153e-09 0)
(0.0747829 1.1978e-08 0)
(0.0747796 1.36782e-08 0)
(0.0747813 1.48858e-08 0)
(0.0747778 1.5082e-08 0)
(0.0747795 1.50406e-08 0)
(0.0747761 1.42536e-08 0)
(0.0747777 1.34479e-08 0)
(0.0747744 1.21725e-08 0)
(0.0747763 1.09749e-08 0)
(0.0747731 9.65336e-09 0)
(0.0747751 8.24413e-09 0)
(0.0747721 7.27812e-09 0)
(0.0747742 5.65655e-09 0)
(0.0747715 5.3075e-09 0)
(0.0747735 3.55606e-09 0)
(0.074771 3.62495e-09 0)
(0.0747731 2.26294e-09 0)
(0.0747708 2.05532e-09 0)
(0.0747728 1.64331e-09 0)
(0.0747706 9.52643e-10 0)
(0.0747727 9.64073e-10 0)
(0.0747704 7.44481e-10 0)
(0.0747726 1.05118e-10 0)
(0.0747704 8.06924e-10 0)
(0.0747725 -4.42491e-10 0)
(0.0747705 1.15161e-09 0)
(0.0747724 -2.87624e-09 0)
(0.0747708 4.45384e-09 0)
(0.0747719 -8.57755e-09 0)
(0.0500159 -0.000123989 0)
(0.0544692 -8.08877e-05 0)
(0.0540708 -5.14163e-05 0)
(0.0559726 -4.59748e-05 0)
(0.0562301 -3.51709e-05 0)
(0.0572009 -3.28029e-05 0)
(0.0576398 -2.8964e-05 0)
(0.0583058 -2.72657e-05 0)
(0.0587606 -2.5316e-05 0)
(0.0593018 -2.40342e-05 0)
(0.0597318 -2.27742e-05 0)
(0.0602075 -2.17933e-05 0)
(0.060607 -2.08673e-05 0)
(0.0610404 -2.00954e-05 0)
(0.0614121 -1.93619e-05 0)
(0.0618141 -1.87323e-05 0)
(0.0621618 -1.81202e-05 0)
(0.0625382 -1.75871e-05 0)
(0.0628651 -1.70553e-05 0)
(0.0632195 -1.6588e-05 0)
(0.0635281 -1.61108e-05 0)
(0.0638627 -1.56891e-05 0)
(0.0641547 -1.52504e-05 0)
(0.0644712 -1.48611e-05 0)
(0.0647477 -1.4451e-05 0)
(0.0650473 -1.40858e-05 0)
(0.0653095 -1.3698e-05 0)
(0.0655931 -1.3352e-05 0)
(0.0658415 -1.2983e-05 0)
(0.06611 -1.2653e-05 0)
(0.0663454 -1.23008e-05 0)
(0.0665994 -1.19852e-05 0)
(0.0668223 -1.16486e-05 0)
(0.0670625 -1.13465e-05 0)
(0.0672735 -1.10249e-05 0)
(0.0675007 -1.07359e-05 0)
(0.0677003 -1.04289e-05 0)
(0.0679149 -1.01527e-05 0)
(0.0681036 -9.86005e-06 0)
(0.0683063 -9.59652e-06 0)
(0.0684846 -9.31789e-06 0)
(0.0686761 -9.06685e-06 0)
(0.0688445 -8.80198e-06 0)
(0.0690253 -8.56318e-06 0)
(0.0691843 -8.3118e-06 0)
(0.0693549 -8.08488e-06 0)
(0.069505 -7.84674e-06 0)
(0.069666 -7.63125e-06 0)
(0.0698076 -7.40605e-06 0)
(0.0699595 -7.20149e-06 0)
(0.070093 -6.98888e-06 0)
(0.0702365 -6.79479e-06 0)
(0.0703623 -6.59431e-06 0)
(0.0704977 -6.41026e-06 0)
(0.0706164 -6.22136e-06 0)
(0.0707442 -6.04699e-06 0)
(0.070856 -5.86904e-06 0)
(0.0709766 -5.70403e-06 0)
(0.0710819 -5.53635e-06 0)
(0.0711959 -5.38042e-06 0)
(0.0712951 -5.22233e-06 0)
(0.0714027 -5.07519e-06 0)
(0.0714961 -4.92606e-06 0)
(0.0715977 -4.78733e-06 0)
(0.0716857 -4.64662e-06 0)
(0.0717817 -4.51592e-06 0)
(0.0718645 -4.38314e-06 0)
(0.0719552 -4.26002e-06 0)
(0.0720332 -4.13477e-06 0)
(0.0721189 -4.01877e-06 0)
(0.0721923 -3.90065e-06 0)
(0.0722733 -3.79135e-06 0)
(0.0723425 -3.68e-06 0)
(0.0724189 -3.57697e-06 0)
(0.0724841 -3.47203e-06 0)
(0.0725563 -3.37491e-06 0)
(0.0726177 -3.276e-06 0)
(0.072686 -3.18445e-06 0)
(0.0727438 -3.09123e-06 0)
(0.0728083 -3.00493e-06 0)
(0.0728627 -2.91705e-06 0)
(0.0729238 -2.83571e-06 0)
(0.072975 -2.75287e-06 0)
(0.0730327 -2.67619e-06 0)
(0.073081 -2.5981e-06 0)
(0.0731355 -2.5258e-06 0)
(0.0731809 -2.45219e-06 0)
(0.0732326 -2.384e-06 0)
(0.0732753 -2.31464e-06 0)
(0.0733242 -2.25028e-06 0)
(0.0733644 -2.18494e-06 0)
(0.0734107 -2.12419e-06 0)
(0.0734485 -2.06264e-06 0)
(0.0734923 -2.00527e-06 0)
(0.0735279 -1.94732e-06 0)
(0.0735694 -1.89311e-06 0)
(0.0736028 -1.83855e-06 0)
(0.0736421 -1.78731e-06 0)
(0.0736736 -1.73595e-06 0)
(0.0737108 -1.68753e-06 0)
(0.0737404 -1.63916e-06 0)
(0.0737757 -1.59341e-06 0)
(0.0738034 -1.54784e-06 0)
(0.073837 -1.50462e-06 0)
(0.073863 -1.46167e-06 0)
(0.0738948 -1.42085e-06 0)
(0.0739192 -1.38035e-06 0)
(0.0739495 -1.34178e-06 0)
(0.0739724 -1.3036e-06 0)
(0.074001 -1.26718e-06 0)
(0.0740225 -1.23119e-06 0)
(0.0740498 -1.1968e-06 0)
(0.0740699 -1.1629e-06 0)
(0.0740958 -1.13042e-06 0)
(0.0741146 -1.09845e-06 0)
(0.0741393 -1.06775e-06 0)
(0.0741569 -1.03755e-06 0)
(0.0741803 -1.00851e-06 0)
(0.0741968 -9.79972e-07 0)
(0.0742191 -9.52475e-07 0)
(0.0742346 -9.25567e-07 0)
(0.0742557 -8.99567e-07 0)
(0.0742702 -8.74295e-07 0)
(0.0742903 -8.49757e-07 0)
(0.0743038 -8.26116e-07 0)
(0.074323 -8.0298e-07 0)
(0.0743356 -7.80876e-07 0)
(0.0743539 -7.59024e-07 0)
(0.0743657 -7.3825e-07 0)
(0.0743831 -7.17504e-07 0)
(0.0743941 -6.97769e-07 0)
(0.0744107 -6.77922e-07 0)
(0.0744209 -6.58933e-07 0)
(0.0744368 -6.39816e-07 0)
(0.0744463 -6.21382e-07 0)
(0.0744614 -6.02964e-07 0)
(0.0744702 -5.85121e-07 0)
(0.0744845 -5.67603e-07 0)
(0.0744927 -5.50696e-07 0)
(0.0745063 -5.34552e-07 0)
(0.0745139 -5.19205e-07 0)
(0.0745268 -5.05091e-07 0)
(0.0745339 -4.92009e-07 0)
(0.0745463 -4.80485e-07 0)
(0.0745529 -4.70092e-07 0)
(0.0745648 -4.61228e-07 0)
(0.0745711 -4.53267e-07 0)
(0.0745827 -4.46296e-07 0)
(0.0745887 -4.39583e-07 0)
(0.0746 -4.32805e-07 0)
(0.0746058 -4.25317e-07 0)
(0.0746168 -4.16393e-07 0)
(0.0746223 -4.05745e-07 0)
(0.0746329 -3.92355e-07 0)
(0.0746379 -3.76513e-07 0)
(0.0746478 -3.5714e-07 0)
(0.0746522 -3.3515e-07 0)
(0.0746613 -3.09638e-07 0)
(0.0746646 -2.82062e-07 0)
(0.0746726 -2.51765e-07 0)
(0.0746748 -2.2062e-07 0)
(0.0746816 -1.88078e-07 0)
(0.0746826 -1.56304e-07 0)
(0.0746881 -1.24595e-07 0)
(0.0746878 -9.5263e-08 0)
(0.0746921 -6.72399e-08 0)
(0.0746908 -4.28292e-08 0)
(0.074694 -2.05057e-08 0)
(0.0746918 -2.44739e-09 0)
(0.0746943 1.33103e-08 0)
(0.0746915 2.47375e-08 0)
(0.0746934 3.41678e-08 0)
(0.0746902 3.96585e-08 0)
(0.0746919 4.37973e-08 0)
(0.0746885 4.46668e-08 0)
(0.0746902 4.49491e-08 0)
(0.0746868 4.27435e-08 0)
(0.0746884 4.06155e-08 0)
(0.0746852 3.6838e-08 0)
(0.0746869 3.34181e-08 0)
(0.0746839 2.94416e-08 0)
(0.0746857 2.52744e-08 0)
(0.0746828 2.23503e-08 0)
(0.0746848 1.74686e-08 0)
(0.0746821 1.63609e-08 0)
(0.0746841 1.11294e-08 0)
(0.0746817 1.11423e-08 0)
(0.0746836 7.22734e-09 0)
(0.0746814 6.29455e-09 0)
(0.0746834 5.2465e-09 0)
(0.0746811 2.99571e-09 0)
(0.0746832 3.0297e-09 0)
(0.074681 2.34093e-09 0)
(0.0746831 4.73782e-10 0)
(0.074681 2.32868e-09 0)
(0.074683 -1.03033e-09 0)
(0.074681 3.05889e-09 0)
(0.074683 -7.23407e-09 0)
(0.0746812 8.0366e-09 0)
(0.0746831 -3.29479e-08 0)
(0.0500155 -0.000208748 0)
(0.0544735 -0.000130418 0)
(0.0540753 -8.85717e-05 0)
(0.0559766 -7.5146e-05 0)
(0.0562347 -5.95369e-05 0)
(0.057205 -5.42369e-05 0)
(0.0576445 -4.85539e-05 0)
(0.05831 -4.53191e-05 0)
(0.0587654 -4.22874e-05 0)
(0.0593062 -4.00249e-05 0)
(0.0597367 -3.79936e-05 0)
(0.060212 -3.63163e-05 0)
(0.060612 -3.47947e-05 0)
(0.0610449 -3.3491e-05 0)
(0.0614169 -3.22743e-05 0)
(0.0618181 -3.12149e-05 0)
(0.0621659 -3.01948e-05 0)
(0.0625413 -2.92979e-05 0)
(0.062868 -2.84092e-05 0)
(0.063221 -2.76222e-05 0)
(0.0635289 -2.68236e-05 0)
(0.0638618 -2.61127e-05 0)
(0.0641527 -2.53781e-05 0)
(0.0644671 -2.47217e-05 0)
(0.0647422 -2.40348e-05 0)
(0.0650393 -2.34193e-05 0)
(0.0652996 -2.27703e-05 0)
(0.0655805 -2.21874e-05 0)
(0.0658268 -2.15703e-05 0)
(0.0660922 -2.10152e-05 0)
(0.0663252 -2.04267e-05 0)
(0.0665761 -1.98965e-05 0)
(0.0667964 -1.93347e-05 0)
(0.0670333 -1.88279e-05 0)
(0.0672416 -1.82918e-05 0)
(0.0674653 -1.78075e-05 0)
(0.0676621 -1.72963e-05 0)
(0.0678733 -1.68341e-05 0)
(0.0680591 -1.63472e-05 0)
(0.0682584 -1.59067e-05 0)
(0.0684338 -1.54435e-05 0)
(0.0686219 -1.50244e-05 0)
(0.0687874 -1.45844e-05 0)
(0.0689648 -1.41862e-05 0)
(0.069121 -1.37689e-05 0)
(0.0692883 -1.33908e-05 0)
(0.0694356 -1.29957e-05 0)
(0.0695935 -1.2637e-05 0)
(0.0697323 -1.22636e-05 0)
(0.0698813 -1.19233e-05 0)
(0.0700121 -1.15709e-05 0)
(0.0701526 -1.12482e-05 0)
(0.0702759 -1.09161e-05 0)
(0.0704085 -1.06103e-05 0)
(0.0705247 -1.02974e-05 0)
(0.0706498 -1.00078e-05 0)
(0.0707592 -9.71322e-06 0)
(0.0708773 -9.4393e-06 0)
(0.0709803 -9.16177e-06 0)
(0.0710919 -8.90302e-06 0)
(0.0711889 -8.64144e-06 0)
(0.0712942 -8.39731e-06 0)
(0.0713855 -8.15063e-06 0)
(0.0714849 -7.92053e-06 0)
(0.0715709 -7.68782e-06 0)
(0.0716648 -7.47107e-06 0)
(0.0717458 -7.25153e-06 0)
(0.0718344 -7.04738e-06 0)
(0.0719107 -6.84032e-06 0)
(0.0719944 -6.64801e-06 0)
(0.0720663 -6.45278e-06 0)
(0.0721454 -6.27159e-06 0)
(0.072213 -6.08757e-06 0)
(0.0722877 -5.9168e-06 0)
(0.0723514 -5.74339e-06 0)
(0.072422 -5.58242e-06 0)
(0.072482 -5.419e-06 0)
(0.0725488 -5.26729e-06 0)
(0.0726052 -5.11327e-06 0)
(0.0726683 -4.97028e-06 0)
(0.0727215 -4.82509e-06 0)
(0.0727811 -4.69033e-06 0)
(0.0728312 -4.55346e-06 0)
(0.0728876 -4.42643e-06 0)
(0.0729347 -4.29741e-06 0)
(0.0729881 -4.17764e-06 0)
(0.0730324 -4.05604e-06 0)
(0.0730829 -3.94308e-06 0)
(0.0731246 -3.82849e-06 0)
(0.0731724 -3.72191e-06 0)
(0.0732116 -3.61395e-06 0)
(0.0732569 -3.51334e-06 0)
(0.0732938 -3.41166e-06 0)
(0.0733366 -3.31665e-06 0)
(0.0733714 -3.2209e-06 0)
(0.0734119 -3.13113e-06 0)
(0.0734446 -3.04099e-06 0)
(0.073483 -2.95615e-06 0)
(0.0735137 -2.87128e-06 0)
(0.0735502 -2.79111e-06 0)
(0.073579 -2.71119e-06 0)
(0.0736135 -2.63544e-06 0)
(0.0736406 -2.56015e-06 0)
(0.0736734 -2.4886e-06 0)
(0.0736988 -2.41764e-06 0)
(0.0737299 -2.35005e-06 0)
(0.0737538 -2.28313e-06 0)
(0.0737833 -2.21928e-06 0)
(0.0738057 -2.15619e-06 0)
(0.0738337 -2.09588e-06 0)
(0.0738547 -2.03643e-06 0)
(0.0738813 -1.97949e-06 0)
(0.073901 -1.92347e-06 0)
(0.0739263 -1.8697e-06 0)
(0.0739447 -1.81688e-06 0)
(0.0739688 -1.76605e-06 0)
(0.073986 -1.71617e-06 0)
(0.0740089 -1.66807e-06 0)
(0.074025 -1.62095e-06 0)
(0.0740468 -1.5754e-06 0)
(0.0740619 -1.53097e-06 0)
(0.0740826 -1.48788e-06 0)
(0.0740967 -1.44616e-06 0)
(0.0741164 -1.40547e-06 0)
(0.0741295 -1.36644e-06 0)
(0.0741483 -1.32807e-06 0)
(0.0741606 -1.2916e-06 0)
(0.0741785 -1.25535e-06 0)
(0.07419 -1.2211e-06 0)
(0.074207 -1.1867e-06 0)
(0.0742177 -1.1542e-06 0)
(0.074234 -1.1213e-06 0)
(0.074244 -1.09006e-06 0)
(0.0742595 -1.05838e-06 0)
(0.0742688 -1.02806e-06 0)
(0.0742835 -9.97522e-07 0)
(0.0742921 -9.68158e-07 0)
(0.0743061 -9.39054e-07 0)
(0.0743141 -9.11172e-07 0)
(0.0743274 -8.84257e-07 0)
(0.0743348 -8.58861e-07 0)
(0.0743475 -8.35204e-07 0)
(0.0743544 -8.13464e-07 0)
(0.0743665 -7.94024e-07 0)
(0.0743729 -7.767e-07 0)
(0.0743846 -7.61677e-07 0)
(0.0743907 -7.48449e-07 0)
(0.074402 -7.36699e-07 0)
(0.0744079 -7.25734e-07 0)
(0.0744189 -7.14562e-07 0)
(0.0744245 -7.02618e-07 0)
(0.0744352 -6.88223e-07 0)
(0.0744406 -6.71374e-07 0)
(0.0744509 -6.49899e-07 0)
(0.0744559 -6.24704e-07 0)
(0.0744656 -5.93512e-07 0)
(0.0744699 -5.58231e-07 0)
(0.0744789 -5.16875e-07 0)
(0.0744823 -4.72236e-07 0)
(0.0744902 -4.22752e-07 0)
(0.0744925 -3.71917e-07 0)
(0.0744993 -3.18359e-07 0)
(0.0745004 -2.66085e-07 0)
(0.0745059 -2.13492e-07 0)
(0.0745058 -1.64855e-07 0)
(0.0745102 -1.17989e-07 0)
(0.074509 -7.71718e-08 0)
(0.0745123 -3.94755e-08 0)
(0.0745102 -8.98479e-09 0)
(0.0745128 1.79668e-08 0)
(0.0745101 3.75222e-08 0)
(0.0745121 5.39909e-08 0)
(0.074509 6.36398e-08 0)
(0.0745107 7.1245e-08 0)
(0.0745074 7.30882e-08 0)
(0.074509 7.4156e-08 0)
(0.0745057 7.07273e-08 0)
(0.0745073 6.76394e-08 0)
(0.0745042 6.14501e-08 0)
(0.0745058 5.60618e-08 0)
(0.0745028 4.94446e-08 0)
(0.0745046 4.26683e-08 0)
(0.0745018 3.77524e-08 0)
(0.0745037 2.96994e-08 0)
(0.0745011 2.77218e-08 0)
(0.074503 1.91486e-08 0)
(0.0745006 1.88493e-08 0)
(0.0745025 1.2629e-08 0)
(0.0745003 1.06412e-08 0)
(0.0745022 9.16783e-09 0)
(0.0745 5.15413e-09 0)
(0.0745021 5.29986e-09 0)
(0.0744999 3.94452e-09 0)
(0.074502 1.15898e-09 0)
(0.0744999 3.56203e-09 0)
(0.0745019 -9.86827e-10 0)
(0.0744998 3.95789e-09 0)
(0.0745019 -8.95102e-09 0)
(0.0744999 4.03119e-09 0)
(0.0745022 -6.93635e-08 0)
(0.0500153 -0.000293974 0)
(0.0544811 -0.000180067 0)
(0.0540825 -0.000125594 0)
(0.0559829 -0.000104309 0)
(0.0562415 -8.38596e-05 0)
(0.0572113 -7.56664e-05 0)
(0.0576514 -6.81292e-05 0)
(0.0583165 -6.33694e-05 0)
(0.0587725 -5.92528e-05 0)
(0.0593129 -5.60134e-05 0)
(0.059744 -5.32095e-05 0)
(0.0602189 -5.08361e-05 0)
(0.0606193 -4.87167e-05 0)
(0.0610516 -4.68786e-05 0)
(0.0614238 -4.51748e-05 0)
(0.0618241 -4.36805e-05 0)
(0.0621717 -4.22465e-05 0)
(0.0625457 -4.09788e-05 0)
(0.0628716 -3.97258e-05 0)
(0.0632227 -3.86112e-05 0)
(0.0635293 -3.74832e-05 0)
(0.0638597 -3.64749e-05 0)
(0.0641486 -3.54366e-05 0)
(0.0644599 -3.4505e-05 0)
(0.0647324 -3.35343e-05 0)
(0.065026 -3.26612e-05 0)
(0.0652832 -3.17447e-05 0)
(0.0655601 -3.09189e-05 0)
(0.0658028 -3.00487e-05 0)
(0.0660639 -2.92633e-05 0)
(0.066293 -2.84348e-05 0)
(0.0665392 -2.76861e-05 0)
(0.0667554 -2.68965e-05 0)
(0.0669875 -2.61822e-05 0)
(0.0671915 -2.54299e-05 0)
(0.0674102 -2.47486e-05 0)
(0.0676026 -2.40324e-05 0)
(0.0678088 -2.33833e-05 0)
(0.0679901 -2.27021e-05 0)
(0.0681844 -2.20847e-05 0)
(0.0683553 -2.14375e-05 0)
(0.0685385 -2.08509e-05 0)
(0.0686995 -2.02369e-05 0)
(0.0688721 -1.96802e-05 0)
(0.0690239 -1.90986e-05 0)
(0.0691865 -1.85706e-05 0)
(0.0693295 -1.80205e-05 0)
(0.0694828 -1.75201e-05 0)
(0.0696174 -1.70006e-05 0)
(0.0697619 -1.65264e-05 0)
(0.0698888 -1.60366e-05 0)
(0.070025 -1.55873e-05 0)
(0.0701444 -1.51259e-05 0)
(0.0702729 -1.47004e-05 0)
(0.0703853 -1.42661e-05 0)
(0.0705065 -1.38634e-05 0)
(0.0706123 -1.34546e-05 0)
(0.0707267 -1.3074e-05 0)
(0.0708263 -1.2689e-05 0)
(0.0709342 -1.23297e-05 0)
(0.071028 -1.1967e-05 0)
(0.0711299 -1.16281e-05 0)
(0.0712181 -1.12861e-05 0)
(0.0713143 -1.09668e-05 0)
(0.0713973 -1.06444e-05 0)
(0.0714881 -1.03437e-05 0)
(0.0715663 -1.00396e-05 0)
(0.071652 -9.75643e-06 0)
(0.0717257 -9.46967e-06 0)
(0.0718066 -9.20301e-06 0)
(0.0718759 -8.9327e-06 0)
(0.0719524 -8.68148e-06 0)
(0.0720177 -8.42675e-06 0)
(0.0720899 -8.19003e-06 0)
(0.0721513 -7.95001e-06 0)
(0.0722196 -7.72693e-06 0)
(0.0722774 -7.50076e-06 0)
(0.0723419 -7.29052e-06 0)
(0.0723964 -7.07739e-06 0)
(0.0724574 -6.87927e-06 0)
(0.0725086 -6.67838e-06 0)
(0.0725663 -6.49167e-06 0)
(0.0726145 -6.30231e-06 0)
(0.072669 -6.12633e-06 0)
(0.0727145 -5.94784e-06 0)
(0.072766 -5.78193e-06 0)
(0.0728088 -5.61371e-06 0)
(0.0728576 -5.45724e-06 0)
(0.0728978 -5.29873e-06 0)
(0.072944 -5.1511e-06 0)
(0.0729818 -5.00177e-06 0)
(0.0730255 -4.86243e-06 0)
(0.0730611 -4.72177e-06 0)
(0.0731025 -4.59019e-06 0)
(0.073136 -4.45775e-06 0)
(0.0731752 -4.33344e-06 0)
(0.0732067 -4.20874e-06 0)
(0.0732438 -4.09127e-06 0)
(0.0732734 -3.97387e-06 0)
(0.0733086 -3.86286e-06 0)
(0.0733364 -3.7523e-06 0)
(0.0733698 -3.64742e-06 0)
(0.0733959 -3.54327e-06 0)
(0.0734276 -3.44421e-06 0)
(0.073452 -3.34604e-06 0)
(0.0734821 -3.25246e-06 0)
(0.0735051 -3.15989e-06 0)
(0.0735337 -3.07149e-06 0)
(0.0735552 -2.98421e-06 0)
(0.0735823 -2.90071e-06 0)
(0.0736025 -2.81847e-06 0)
(0.0736283 -2.73963e-06 0)
(0.0736472 -2.66214e-06 0)
(0.0736717 -2.58769e-06 0)
(0.0736894 -2.51462e-06 0)
(0.0737127 -2.44426e-06 0)
(0.0737293 -2.37527e-06 0)
(0.0737514 -2.30867e-06 0)
(0.0737669 -2.2435e-06 0)
(0.073788 -2.18043e-06 0)
(0.0738025 -2.11898e-06 0)
(0.0738225 -2.0593e-06 0)
(0.0738361 -2.00158e-06 0)
(0.0738552 -1.94522e-06 0)
(0.0738679 -1.89123e-06 0)
(0.073886 -1.83806e-06 0)
(0.0738979 -1.78761e-06 0)
(0.0739151 -1.7374e-06 0)
(0.0739262 -1.69005e-06 0)
(0.0739427 -1.64242e-06 0)
(0.073953 -1.59751e-06 0)
(0.0739687 -1.55199e-06 0)
(0.0739783 -1.50885e-06 0)
(0.0739933 -1.46504e-06 0)
(0.0740023 -1.42318e-06 0)
(0.0740165 -1.38093e-06 0)
(0.0740248 -1.34037e-06 0)
(0.0740384 -1.30004e-06 0)
(0.0740461 -1.26145e-06 0)
(0.074059 -1.22405e-06 0)
(0.0740661 -1.1888e-06 0)
(0.0740783 -1.15578e-06 0)
(0.0740849 -1.12548e-06 0)
(0.0740967 -1.09821e-06 0)
(0.0741028 -1.07398e-06 0)
(0.0741141 -1.05283e-06 0)
(0.07412 -1.03435e-06 0)
(0.0741309 -1.01789e-06 0)
(0.0741365 -1.00277e-06 0)
(0.0741471 -9.87416e-07 0)
(0.0741525 -9.71312e-07 0)
(0.0741629 -9.51891e-07 0)
(0.074168 -9.29398e-07 0)
(0.074178 -9.00559e-07 0)
(0.0741828 -8.66832e-07 0)
(0.0741923 -8.24786e-07 0)
(0.0741964 -7.77224e-07 0)
(0.0742052 -7.21121e-07 0)
(0.0742085 -6.60489e-07 0)
(0.0742163 -5.92898e-07 0)
(0.0742186 -5.23347e-07 0)
(0.0742253 -4.49687e-07 0)
(0.0742265 -3.77662e-07 0)
(0.074232 -3.04829e-07 0)
(0.074232 -2.37334e-07 0)
(0.0742363 -1.71958e-07 0)
(0.0742353 -1.14874e-07 0)
(0.0742386 -6.18541e-08 0)
(0.0742368 -1.88128e-08 0)
(0.0742393 1.94968e-08 0)
(0.0742368 4.74704e-08 0)
(0.0742387 7.12639e-08 0)
(0.0742358 8.54412e-08 0)
(0.0742375 9.68352e-08 0)
(0.0742344 1.00025e-07 0)
(0.0742359 1.02172e-07 0)
(0.0742328 9.78435e-08 0)
(0.0742343 9.40232e-08 0)
(0.0742312 8.56736e-08 0)
(0.0742328 7.84623e-08 0)
(0.0742299 6.93829e-08 0)
(0.0742316 6.00738e-08 0)
(0.0742289 5.3259e-08 0)
(0.0742307 4.21059e-08 0)
(0.0742282 3.9211e-08 0)
(0.07423 2.7461e-08 0)
(0.0742277 2.66261e-08 0)
(0.0742295 1.83569e-08 0)
(0.0742274 1.50443e-08 0)
(0.0742292 1.33234e-08 0)
(0.0742271 7.39827e-09 0)
(0.0742291 7.75278e-09 0)
(0.074227 5.5041e-09 0)
(0.074229 2.18202e-09 0)
(0.0742269 4.46115e-09 0)
(0.0742289 -3.00399e-10 0)
(0.0742269 3.9694e-09 0)
(0.074229 -9.23328e-09 0)
(0.0742268 -1.33453e-09 0)
(0.0742293 -1.10224e-07 0)
(0.0500153 -0.000379278 0)
(0.0544917 -0.000230056 0)
(0.0540923 -0.000162451 0)
(0.0559915 -0.000133541 0)
(0.0562508 -0.000108133 0)
(0.0572199 -9.71192e-05 0)
(0.0576606 -8.76925e-05 0)
(0.0583253 -8.14293e-05 0)
(0.058782 -7.62173e-05 0)
(0.059322 -7.20073e-05 0)
(0.0597537 -6.84262e-05 0)
(0.0602281 -6.53565e-05 0)
(0.060629 -6.26344e-05 0)
(0.0610605 -6.02573e-05 0)
(0.0614327 -5.80592e-05 0)
(0.0618317 -5.6122e-05 0)
(0.0621787 -5.42645e-05 0)
(0.0625508 -5.26158e-05 0)
(0.0628754 -5.09875e-05 0)
(0.0632237 -4.95336e-05 0)
(0.0635282 -4.80649e-05 0)
(0.0638551 -4.67473e-05 0)
(0.064141 -4.53942e-05 0)
(0.0644481 -4.41765e-05 0)
(0.0647169 -4.2912e-05 0)
(0.0650056 -4.17715e-05 0)
(0.0652584 -4.05791e-05 0)
(0.0655298 -3.9502e-05 0)
(0.0657676 -3.83719e-05 0)
(0.0660228 -3.73498e-05 0)
(0.0662466 -3.6276e-05 0)
(0.0664865 -3.53039e-05 0)
(0.0666971 -3.42829e-05 0)
(0.0669227 -3.33577e-05 0)
(0.0671208 -3.23871e-05 0)
(0.0673329 -3.15068e-05 0)
(0.0675193 -3.05847e-05 0)
(0.0677188 -2.97479e-05 0)
(0.0678941 -2.88726e-05 0)
(0.0680818 -2.80782e-05 0)
(0.0682467 -2.72482e-05 0)
(0.0684233 -2.64948e-05 0)
(0.0685784 -2.57087e-05 0)
(0.0687446 -2.4995e-05 0)
(0.0688905 -2.42514e-05 0)
(0.0690469 -2.35756e-05 0)
(0.0691842 -2.28732e-05 0)
(0.0693315 -2.22335e-05 0)
(0.0694606 -2.1571e-05 0)
(0.0695993 -2.09655e-05 0)
(0.0697207 -2.03414e-05 0)
(0.0698514 -1.97684e-05 0)
(0.0699656 -1.9181e-05 0)
(0.0700888 -1.86389e-05 0)
(0.0701962 -1.80864e-05 0)
(0.0703123 -1.75739e-05 0)
(0.0704134 -1.70541e-05 0)
(0.0705228 -1.657e-05 0)
(0.0706179 -1.60809e-05 0)
(0.0707212 -1.56241e-05 0)
(0.0708106 -1.51635e-05 0)
(0.070908 -1.47329e-05 0)
(0.0709922 -1.42989e-05 0)
(0.0710841 -1.38935e-05 0)
(0.0711633 -1.34843e-05 0)
(0.07125 -1.31026e-05 0)
(0.0713246 -1.27169e-05 0)
(0.0714064 -1.23576e-05 0)
(0.0714766 -1.19941e-05 0)
(0.0715539 -1.16558e-05 0)
(0.0716199 -1.13132e-05 0)
(0.0716929 -1.09946e-05 0)
(0.0717551 -1.06718e-05 0)
(0.071824 -1.03716e-05 0)
(0.0718825 -1.00675e-05 0)
(0.0719477 -9.78471e-06 0)
(0.0720028 -9.49823e-06 0)
(0.0720643 -9.23174e-06 0)
(0.0721162 -8.96181e-06 0)
(0.0721744 -8.71072e-06 0)
(0.0722231 -8.45633e-06 0)
(0.0722782 -8.21972e-06 0)
(0.0723241 -7.97996e-06 0)
(0.0723761 -7.75698e-06 0)
(0.0724193 -7.531e-06 0)
(0.0724686 -7.3208e-06 0)
(0.0725092 -7.10784e-06 0)
(0.0725558 -6.90961e-06 0)
(0.072594 -6.70895e-06 0)
(0.0726381 -6.52194e-06 0)
(0.0726741 -6.33291e-06 0)
(0.0727158 -6.15641e-06 0)
(0.0727497 -5.97837e-06 0)
(0.0727892 -5.8117e-06 0)
(0.072821 -5.64407e-06 0)
(0.0728585 -5.48662e-06 0)
(0.0728883 -5.32879e-06 0)
(0.0729238 -5.18e-06 0)
(0.0729519 -5.03141e-06 0)
(0.0729856 -4.89081e-06 0)
(0.073012 -4.75088e-06 0)
(0.0730439 -4.61806e-06 0)
(0.0730686 -4.48623e-06 0)
(0.0730989 -4.36079e-06 0)
(0.0731222 -4.23652e-06 0)
(0.0731509 -4.11803e-06 0)
(0.0731727 -4.00086e-06 0)
(0.0732 -3.88892e-06 0)
(0.0732205 -3.77844e-06 0)
(0.0732464 -3.67271e-06 0)
(0.0732656 -3.5686e-06 0)
(0.0732902 -3.46877e-06 0)
(0.0733081 -3.37067e-06 0)
(0.0733316 -3.27641e-06 0)
(0.0733484 -3.18391e-06 0)
(0.0733706 -3.09482e-06 0)
(0.0733864 -3.0075e-06 0)
(0.0734075 -2.92318e-06 0)
(0.0734223 -2.84069e-06 0)
(0.0734424 -2.76084e-06 0)
(0.0734562 -2.68305e-06 0)
(0.0734753 -2.60747e-06 0)
(0.0734882 -2.5344e-06 0)
(0.0735064 -2.463e-06 0)
(0.0735185 -2.39464e-06 0)
(0.0735358 -2.3273e-06 0)
(0.073547 -2.26342e-06 0)
(0.0735636 -2.19984e-06 0)
(0.0735741 -2.13989e-06 0)
(0.0735898 -2.07961e-06 0)
(0.0735996 -2.02278e-06 0)
(0.0736146 -1.96521e-06 0)
(0.0736238 -1.91065e-06 0)
(0.0736381 -1.85525e-06 0)
(0.0736466 -1.80233e-06 0)
(0.0736602 -1.74889e-06 0)
(0.0736681 -1.69758e-06 0)
(0.0736811 -1.64652e-06 0)
(0.0736884 -1.59763e-06 0)
(0.0737007 -1.55016e-06 0)
(0.0737074 -1.50537e-06 0)
(0.0737191 -1.46331e-06 0)
(0.0737254 -1.42468e-06 0)
(0.0737366 -1.38979e-06 0)
(0.0737425 -1.35879e-06 0)
(0.0737532 -1.33165e-06 0)
(0.0737587 -1.30801e-06 0)
(0.0737691 -1.28696e-06 0)
(0.0737745 -1.26784e-06 0)
(0.0737846 -1.24852e-06 0)
(0.0737897 -1.22854e-06 0)
(0.0737996 -1.20452e-06 0)
(0.0738045 -1.1769e-06 0)
(0.073814 -1.14138e-06 0)
(0.0738186 -1.0999e-06 0)
(0.0738276 -1.04795e-06 0)
(0.0738316 -9.89119e-07 0)
(0.07384 -9.19409e-07 0)
(0.0738433 -8.43921e-07 0)
(0.0738508 -7.59421e-07 0)
(0.0738531 -6.72277e-07 0)
(0.0738596 -5.79629e-07 0)
(0.0738608 -4.8882e-07 0)
(0.0738662 -3.9665e-07 0)
(0.0738663 -3.11007e-07 0)
(0.0738706 -2.27741e-07 0)
(0.0738697 -1.54801e-07 0)
(0.073873 -8.67831e-08 0)
(0.0738713 -3.1319e-08 0)
(0.0738738 1.82772e-08 0)
(0.0738714 5.47641e-08 0)
(0.0738734 8.59916e-08 0)
(0.0738706 1.04935e-07 0)
(0.0738723 1.20326e-07 0)
(0.0738693 1.25162e-07 0)
(0.0738708 1.28627e-07 0)
(0.0738678 1.23698e-07 0)
(0.0738693 1.19361e-07 0)
(0.0738664 1.09112e-07 0)
(0.0738679 1.00245e-07 0)
(0.0738651 8.89017e-08 0)
(0.0738667 7.71878e-08 0)
(0.0738641 6.85746e-08 0)
(0.0738658 5.44673e-08 0)
(0.0738634 5.0603e-08 0)
(0.0738651 3.59066e-08 0)
(0.0738629 3.4332e-08 0)
(0.0738646 2.42826e-08 0)
(0.0738625 1.94338e-08 0)
(0.0738643 1.76287e-08 0)
(0.0738623 9.66914e-09 0)
(0.0738642 1.03697e-08 0)
(0.0738621 6.96575e-09 0)
(0.0738641 3.52351e-09 0)
(0.0738621 5.05426e-09 0)
(0.0738641 8.85736e-10 0)
(0.073862 3.44924e-09 0)
(0.0738641 -8.98901e-09 0)
(0.073862 -5.99205e-09 0)
(0.0738644 -1.51696e-07 0)
(0.0500151 -0.000464776 0)
(0.0545052 -0.000280213 0)
(0.0541048 -0.000199273 0)
(0.0560026 -0.000162772 0)
(0.0562624 -0.000132399 0)
(0.0572307 -0.000118576 0)
(0.0576722 -0.000107258 0)
(0.0583364 -9.9495e-05 0)
(0.0587939 -9.31867e-05 0)
(0.0593334 -8.80061e-05 0)
(0.0597659 -8.36453e-05 0)
(0.0602396 -7.98752e-05 0)
(0.0606408 -7.65444e-05 0)
(0.0610712 -7.362e-05 0)
(0.0614432 -7.09177e-05 0)
(0.0618405 -6.85255e-05 0)
(0.0621863 -6.62316e-05 0)
(0.0625557 -6.41872e-05 0)
(0.0628782 -6.21692e-05 0)
(0.0632228 -6.03605e-05 0)
(0.0635241 -5.85362e-05 0)
(0.0638463 -5.68942e-05 0)
(0.0641281 -5.52124e-05 0)
(0.0644296 -5.36946e-05 0)
(0.0646933 -5.2124e-05 0)
(0.0649756 -5.0704e-05 0)
(0.0652226 -4.92255e-05 0)
(0.0654869 -4.78872e-05 0)
(0.0657183 -4.64892e-05 0)
(0.0659659 -4.52226e-05 0)
(0.0661828 -4.38978e-05 0)
(0.0664148 -4.26966e-05 0)
(0.0666181 -4.14404e-05 0)
(0.0668355 -4.03005e-05 0)
(0.0670261 -3.91095e-05 0)
(0.06723 -3.80281e-05 0)
(0.0674088 -3.68995e-05 0)
(0.0676001 -3.58744e-05 0)
(0.0677677 -3.48057e-05 0)
(0.0679472 -3.38348e-05 0)
(0.0681045 -3.28237e-05 0)
(0.0682731 -3.19051e-05 0)
(0.0684207 -3.09494e-05 0)
(0.068579 -3.00809e-05 0)
(0.0687176 -2.91785e-05 0)
(0.0688664 -2.83577e-05 0)
(0.0689966 -2.75066e-05 0)
(0.0691364 -2.67309e-05 0)
(0.0692587 -2.59293e-05 0)
(0.0693902 -2.51962e-05 0)
(0.069505 -2.4442e-05 0)
(0.0696288 -2.37491e-05 0)
(0.0697367 -2.30401e-05 0)
(0.0698532 -2.23853e-05 0)
(0.0699546 -2.1719e-05 0)
(0.0700644 -2.11005e-05 0)
(0.0701597 -2.04742e-05 0)
(0.0702631 -1.98906e-05 0)
(0.0703526 -1.93016e-05 0)
(0.0704502 -1.87514e-05 0)
(0.0705343 -1.8197e-05 0)
(0.0706263 -1.76788e-05 0)
(0.0707054 -1.71568e-05 0)
(0.0707922 -1.6669e-05 0)
(0.0708666 -1.61771e-05 0)
(0.0709484 -1.57182e-05 0)
(0.0710184 -1.52547e-05 0)
(0.0710957 -1.48229e-05 0)
(0.0711615 -1.43862e-05 0)
(0.0712344 -1.39797e-05 0)
(0.0712964 -1.35683e-05 0)
(0.0713652 -1.31856e-05 0)
(0.0714235 -1.27982e-05 0)
(0.0714885 -1.24377e-05 0)
(0.0715434 -1.20728e-05 0)
(0.0716048 -1.17333e-05 0)
(0.0716564 -1.13896e-05 0)
(0.0717144 -1.10697e-05 0)
(0.0717631 -1.07459e-05 0)
(0.0718179 -1.04445e-05 0)
(0.0718636 -1.01394e-05 0)
(0.0719155 -9.85552e-06 0)
(0.0719585 -9.56799e-06 0)
(0.0720075 -9.30046e-06 0)
(0.072048 -9.0295e-06 0)
(0.0720944 -8.77733e-06 0)
(0.0721325 -8.522e-06 0)
(0.0721764 -8.28421e-06 0)
(0.0722122 -8.04365e-06 0)
(0.0722537 -7.81934e-06 0)
(0.0722874 -7.59273e-06 0)
(0.0723268 -7.38103e-06 0)