/*--------------------------------*- C++ -*----------------------------------*\
| =========                 |                                                 |
| \\      /  F ield         | OpenFOAM: The Open Source CFD Toolbox           |
|  \\    /   O peration     | Version:  2412                                  |
|   \\  /    A nd           | Website:  www.openfoam.com                      |
|    \\/     M anipulation  |                                                 |
\*---------------------------------------------------------------------------*/
FoamFile
{
    version     2.0;
    format      ascii;
    arch        "LSB;label=32;scalar=64";
    class       volScalarField;
    location    "400";
    object      p;
}
// * * * * * * * * * * * * * * * * * * * * * * * * * * * * * * * * * * * * * //

dimensions      [0 2 -2 0 0 0 0];

internalField   nonuniform List<scalar> 
8000
(
0.00309647
0.00286183
0.00288365
0.00277965
0.00276446
0.00271083
0.00268458
0.00264759
0.00261986
0.00258956
0.00256288
0.00253599
0.00251081
0.00248605
0.00246228
0.00243904
0.00241649
0.00239445
0.00237293
0.00235187
0.00233124
0.00231101
0.00229114
0.00227162
0.00225241
0.00223353
0.0022149
0.00219657
0.00217846
0.00216062
0.00214297
0.00212558
0.00210835
0.00209137
0.00207451
0.0020579
0.00204138
0.00202512
0.00200891
0.00199296
0.00197704
0.00196138
0.00194572
0.00193033
0.00191491
0.00189978
0.00188458
0.00186969
0.0018547
0.00184002
0.00182523
0.00181076
0.00179615
0.00178187
0.00176743
0.00175334
0.00173906
0.00172513
0.00171101
0.00169724
0.00168326
0.00166963
0.00165579
0.0016423
0.0016286
0.00161523
0.00160167
0.00158841
0.00157497
0.00156182
0.00154851
0.00153545
0.00152225
0.00150927
0.00149617
0.00148326
0.00147027
0.00145742
0.00144453
0.00143175
0.00141897
0.00140627
0.00139361
0.00138101
0.0013685
0.00135602
0.00134367
0.00133133
0.00131915
0.00130696
0.00129495
0.0012829
0.00127104
0.00125911
0.00124737
0.00123552
0.00122387
0.00121206
0.00120044
0.00118866
0.00117705
0.00116525
0.00115363
0.00114182
0.00113018
0.00111833
0.00110667
0.00109479
0.00108311
0.00107121
0.00105952
0.00104759
0.00103589
0.00102395
0.00101224
0.0010003
0.000988573
0.000976644
0.000964899
0.00095298
0.00094122
0.000929313
0.000917539
0.000905645
0.000893858
0.000881974
0.000870178
0.000858302
0.000846498
0.000834628
0.00082282
0.000810953
0.000799143
0.000787277
0.000775467
0.000763602
0.00075179
0.000739926
0.000728113
0.00071625
0.000704436
0.000692574
0.00068076
0.000668898
0.000657083
0.000645222
0.000633407
0.000621545
0.000609731
0.000597869
0.000586054
0.000574193
0.000562378
0.000550516
0.000538702
0.00052684
0.000515025
0.000503164
0.000491348
0.000479488
0.000467671
0.000455813
0.000443994
0.000432137
0.000420317
0.000408462
0.00039664
0.000384787
0.000372963
0.000361111
0.000349286
0.000337435
0.000325609
0.000313759
0.000301933
0.000290083
0.000278256
0.000266407
0.00025458
0.00024273
0.000230904
0.000219054
0.000207228
0.000195377
0.000183552
0.0001717
0.000159876
0.000148024
0.0001362
0.000124347
0.000112523
0.000100671
8.88467e-05
7.69953e-05
6.51693e-05
5.33204e-05
4.1488e-05
2.96438e-05
1.77547e-05
5.92927e-06
0.00309657
0.00286181
0.00288361
0.00277965
0.00276444
0.00271083
0.00268458
0.00264759
0.00261986
0.00258956
0.00256288
0.00253599
0.00251081
0.00248605
0.00246228
0.00243904
0.00241649
0.00239445
0.00237293
0.00235187
0.00233124
0.00231101
0.00229114
0.00227162
0.00225241
0.00223353
0.0022149
0.00219657
0.00217846
0.00216062
0.00214297
0.00212558
0.00210835
0.00209137
0.00207451
0.0020579
0.00204138
0.00202512
0.00200891
0.00199296
0.00197704
0.00196138
0.00194572
0.00193033
0.00191491
0.00189978
0.00188458
0.00186969
0.0018547
0.00184002
0.00182523
0.00181076
0.00179615
0.00178187
0.00176743
0.00175334
0.00173906
0.00172513
0.00171101
0.00169724
0.00168326
0.00166963
0.00165579
0.0016423
0.0016286
0.00161523
0.00160167
0.00158841
0.00157497
0.00156182
0.00154851
0.00153545
0.00152225
0.00150927
0.00149617
0.00148326
0.00147027
0.00145742
0.00144453
0.00143175
0.00141897
0.00140627
0.00139361
0.00138101
0.0013685
0.00135602
0.00134366
0.00133133
0.00131915
0.00130696
0.00129495
0.0012829
0.00127104
0.00125911
0.00124737
0.00123552
0.00122386
0.00121206
0.00120044
0.00118866
0.00117705
0.00116525
0.00115363
0.00114182
0.00113018
0.00111833
0.00110667
0.00109479
0.00108311
0.00107121
0.00105952
0.00104759
0.00103589
0.00102395
0.00101224
0.0010003
0.000988573
0.000976644
0.000964899
0.00095298
0.00094122
0.000929313
0.000917539
0.000905645
0.000893858
0.000881974
0.000870178
0.000858302
0.000846498
0.000834628
0.00082282
0.000810953
0.000799143
0.000787277
0.000775467
0.000763602
0.00075179
0.000739926
0.000728113
0.00071625
0.000704436
0.000692574
0.00068076
0.000668898
0.000657083
0.000645222
0.000633407
0.000621545
0.000609731
0.000597869
0.000586054
0.000574193
0.000562378
0.000550516
0.000538702
0.00052684
0.000515025
0.000503164
0.000491348
0.000479488
0.000467671
0.000455813
0.000443994
0.000432137
0.000420317
0.000408462
0.00039664
0.000384787
0.000372963
0.000361111
0.000349286
0.000337435
0.000325609
0.000313759
0.000301933
0.000290083
0.000278256
0.000266407
0.00025458
0.00024273
0.000230904
0.000219054
0.000207228
0.000195377
0.000183552
0.0001717
0.000159876
0.000148024
0.0001362
0.000124347
0.000112523
0.000100671
8.88467e-05
7.69954e-05
6.51693e-05
5.33204e-05
4.14881e-05
2.96438e-05
1.77544e-05
5.92899e-06
0.00309678
0.00286173
0.00288356
0.00277963
0.00276443
0.00271082
0.00268457
0.00264758
0.00261985
0.00258956
0.00256288
0.00253599
0.00251081
0.00248604
0.00246227
0.00243904
0.00241649
0.00239444
0.00237293
0.00235187
0.00233124
0.00231101
0.00229113
0.00227162
0.00225241
0.00223352
0.0022149
0.00219657
0.00217845
0.00216062
0.00214297
0.00212558
0.00210835
0.00209137
0.00207451
0.0020579
0.00204138
0.00202512
0.00200891
0.00199296
0.00197704
0.00196138
0.00194572
0.00193033
0.00191491
0.00189978
0.00188458
0.00186969
0.0018547
0.00184002
0.00182523
0.00181076
0.00179615
0.00178187
0.00176743
0.00175334
0.00173906
0.00172513
0.00171101
0.00169724
0.00168326
0.00166963
0.00165579
0.0016423
0.0016286
0.00161523
0.00160166
0.00158841
0.00157497
0.00156182
0.00154851
0.00153545
0.00152225
0.00150927
0.00149617
0.00148326
0.00147027
0.00145742
0.00144453
0.00143175
0.00141897
0.00140627
0.00139361
0.00138101
0.0013685
0.00135602
0.00134366
0.00133132
0.00131915
0.00130696
0.00129495
0.0012829
0.00127104
0.00125911
0.00124737
0.00123552
0.00122386
0.00121206
0.00120044
0.00118866
0.00117705
0.00116525
0.00115363
0.00114182
0.00113018
0.00111833
0.00110667
0.00109479
0.00108311
0.00107121
0.00105952
0.00104759
0.00103589
0.00102395
0.00101224
0.0010003
0.000988573
0.000976644
0.000964899
0.00095298
0.00094122
0.000929313
0.000917539
0.000905645
0.000893858
0.000881974
0.000870178
0.000858302
0.000846498
0.000834628
0.00082282
0.000810953
0.000799143
0.000787278
0.000775467
0.000763602
0.00075179
0.000739926
0.000728113
0.00071625
0.000704436
0.000692574
0.00068076
0.000668898
0.000657083
0.000645222
0.000633407
0.000621545
0.000609731
0.000597869
0.000586054
0.000574193
0.000562378
0.000550516
0.000538702
0.00052684
0.000515025
0.000503164
0.000491348
0.000479488
0.000467671
0.000455813
0.000443994
0.000432137
0.000420317
0.000408462
0.00039664
0.000384787
0.000372963
0.000361111
0.000349286
0.000337435
0.000325609
0.000313759
0.000301933
0.000290083
0.000278256
0.000266407
0.00025458
0.00024273
0.000230904
0.000219054
0.000207228
0.000195377
0.000183552
0.0001717
0.000159876
0.000148024
0.0001362
0.000124347
0.000112523
0.000100671
8.88467e-05
7.69954e-05
6.51693e-05
5.33204e-05
4.14881e-05
2.96439e-05
1.77547e-05
5.92931e-06
0.00309709
0.00286159
0.0028835
0.00277959
0.0027644
0.0027108
0.00268456
0.00264757
0.00261985
0.00258955
0.00256287
0.00253598
0.0025108
0.00248604
0.00246227
0.00243903
0.00241648
0.00239444
0.00237293
0.00235187
0.00233123
0.002311
0.00229113
0.00227162
0.00225241
0.00223352
0.0022149
0.00219656
0.00217845
0.00216062
0.00214297
0.00212558
0.00210835
0.00209137
0.00207451
0.0020579
0.00204138
0.00202512
0.00200891
0.00199296
0.00197704
0.00196138
0.00194572
0.00193033
0.00191491
0.00189978
0.00188458
0.00186969
0.0018547
0.00184002
0.00182523
0.00181076
0.00179615
0.00178187
0.00176743
0.00175334
0.00173906
0.00172513
0.00171101
0.00169724
0.00168326
0.00166963
0.00165579
0.0016423
0.0016286
0.00161523
0.00160166
0.00158841
0.00157497
0.00156182
0.00154851
0.00153545
0.00152225
0.00150927
0.00149617
0.00148326
0.00147027
0.00145742
0.00144453
0.00143175
0.00141897
0.00140627
0.00139361
0.00138101
0.0013685
0.00135602
0.00134366
0.00133132
0.00131915
0.00130696
0.00129495
0.0012829
0.00127104
0.00125911
0.00124737
0.00123552
0.00122386
0.00121206
0.00120044
0.00118866
0.00117705
0.00116525
0.00115363
0.00114182
0.00113018
0.00111833
0.00110667
0.00109479
0.00108311
0.00107121
0.00105952
0.00104759
0.00103589
0.00102395
0.00101224
0.0010003
0.000988573
0.000976644
0.000964899
0.00095298
0.00094122
0.000929313
0.000917539
0.000905645
0.000893858
0.000881974
0.000870178
0.000858302
0.000846498
0.000834628
0.00082282
0.000810953
0.000799143
0.000787278
0.000775467
0.000763602
0.00075179
0.000739926
0.000728113
0.00071625
0.000704436
0.000692574
0.00068076
0.000668898
0.000657083
0.000645222
0.000633407
0.000621545
0.000609731
0.000597869
0.000586054
0.000574193
0.000562378
0.000550516
0.000538702
0.00052684
0.000515025
0.000503164
0.000491348
0.000479488
0.000467671
0.000455813
0.000443994
0.000432137
0.000420317
0.000408462
0.00039664
0.000384787
0.000372963
0.000361111
0.000349286
0.000337435
0.000325609
0.000313759
0.000301933
0.000290083
0.000278256
0.000266407
0.00025458
0.00024273
0.000230904
0.000219054
0.000207228
0.000195377
0.000183552
0.0001717
0.000159876
0.000148024
0.0001362
0.000124347
0.000112523
0.000100671
8.88467e-05
7.69953e-05
6.51693e-05
5.33204e-05
4.14882e-05
2.96439e-05
1.77556e-05
5.93017e-06
0.00309751
0.00286141
0.00288342
0.00277954
0.00276437
0.00271078
0.00268454
0.00264756
0.00261984
0.00258954
0.00256286
0.00253598
0.0025108
0.00248603
0.00246227
0.00243903
0.00241648
0.00239444
0.00237292
0.00235186
0.00233123
0.002311
0.00229113
0.00227162
0.00225241
0.00223352
0.00221489
0.00219656
0.00217845
0.00216062
0.00214297
0.00212558
0.00210835
0.00209137
0.00207451
0.0020579
0.00204138
0.00202512
0.00200891
0.00199296
0.00197703
0.00196138
0.00194572
0.00193033
0.00191491
0.00189978
0.00188458
0.00186968
0.0018547
0.00184002
0.00182523
0.00181076
0.00179615
0.00178187
0.00176743
0.00175334
0.00173906
0.00172513
0.00171101
0.00169724
0.00168326
0.00166963
0.00165579
0.0016423
0.0016286
0.00161523
0.00160166
0.00158841
0.00157497
0.00156182
0.00154851
0.00153545
0.00152225
0.00150927
0.00149617
0.00148326
0.00147027
0.00145742
0.00144453
0.00143175
0.00141897
0.00140627
0.00139361
0.00138101
0.00136849
0.00135602
0.00134366
0.00133132
0.00131915
0.00130696
0.00129495
0.0012829
0.00127104
0.00125911
0.00124737
0.00123552
0.00122386
0.00121206
0.00120044
0.00118866
0.00117705
0.00116525
0.00115363
0.00114182
0.00113018
0.00111833
0.00110667
0.00109479
0.00108311
0.00107121
0.00105952
0.00104759
0.00103589
0.00102395
0.00101224
0.0010003
0.000988573
0.000976644
0.000964899
0.00095298
0.00094122
0.000929313
0.000917539
0.000905645
0.000893858
0.000881974
0.000870178
0.000858302
0.000846498
0.000834628
0.00082282
0.000810953
0.000799143
0.000787278
0.000775467
0.000763602
0.00075179
0.000739926
0.000728113
0.00071625
0.000704436
0.000692574
0.00068076
0.000668898
0.000657083
0.000645222
0.000633407
0.000621545
0.000609731
0.000597869
0.000586054
0.000574193
0.000562378
0.000550516
0.000538702
0.00052684
0.000515025
0.000503164
0.000491348
0.000479488
0.000467671
0.000455813
0.000443994
0.000432137
0.000420317
0.000408462
0.00039664
0.000384787
0.000372962
0.000361111
0.000349286
0.000337435
0.000325609
0.000313759
0.000301933
0.000290083
0.000278256
0.000266407
0.00025458
0.00024273
0.000230904
0.000219054
0.000207228
0.000195377
0.000183552
0.0001717
0.000159876
0.000148024
0.0001362
0.000124347
0.000112523
0.000100671
8.88467e-05
7.69953e-05
6.51693e-05
5.33204e-05
4.14882e-05
2.9644e-05
1.77569e-05
5.93149e-06
0.00309804
0.00286118
0.00288331
0.00277948
0.00276433
0.00271076
0.00268452
0.00264755
0.00261982
0.00258953
0.00256286
0.00253597
0.00251079
0.00248603
0.00246226
0.00243903
0.00241647
0.00239443
0.00237292
0.00235186
0.00233123
0.002311
0.00229113
0.00227161
0.00225241
0.00223352
0.00221489
0.00219656
0.00217845
0.00216062
0.00214297
0.00212558
0.00210835
0.00209137
0.00207451
0.0020579
0.00204138
0.00202511
0.00200891
0.00199296
0.00197703
0.00196137
0.00194571
0.00193033
0.00191491
0.00189978
0.00188458
0.00186968
0.0018547
0.00184002
0.00182523
0.00181076
0.00179615
0.00178187
0.00176743
0.00175334
0.00173906
0.00172513
0.00171101
0.00169724
0.00168326
0.00166963
0.00165579
0.0016423
0.0016286
0.00161523
0.00160166
0.00158841
0.00157497
0.00156182
0.00154851
0.00153545
0.00152225
0.00150927
0.00149617
0.00148326
0.00147027
0.00145742
0.00144453
0.00143175
0.00141897
0.00140627
0.00139361
0.00138101
0.00136849
0.00135601
0.00134366
0.00133132
0.00131915
0.00130695
0.00129495
0.0012829
0.00127104
0.00125911
0.00124737
0.00123552
0.00122386
0.00121206
0.00120044
0.00118866
0.00117705
0.00116525
0.00115363
0.00114182
0.00113018
0.00111833
0.00110667
0.00109479
0.00108311
0.00107121
0.00105952
0.00104759
0.00103589
0.00102396
0.00101224
0.0010003
0.000988573
0.000976644
0.000964899
0.00095298
0.00094122
0.000929313
0.000917539
0.000905645
0.000893858
0.000881974
0.000870178
0.000858302
0.000846498
0.000834628
0.00082282
0.000810953
0.000799143
0.000787278
0.000775467
0.000763602
0.00075179
0.000739926
0.000728113
0.00071625
0.000704436
0.000692574
0.00068076
0.000668898
0.000657083
0.000645222
0.000633407
0.000621545
0.000609731
0.000597869
0.000586054
0.000574193
0.000562378
0.000550516
0.000538702
0.00052684
0.000515025
0.000503164
0.000491348
0.000479488
0.000467671
0.000455813
0.000443994
0.000432137
0.000420317
0.000408462
0.00039664
0.000384787
0.000372962
0.000361111
0.000349286
0.000337435
0.000325609
0.000313759
0.000301933
0.000290083
0.000278256
0.000266407
0.00025458
0.00024273
0.000230904
0.000219054
0.000207228
0.000195377
0.000183552
0.0001717
0.000159876
0.000148024
0.0001362
0.000124347
0.000112523
0.000100671
8.88467e-05
7.69953e-05
6.51693e-05
5.33204e-05
4.14883e-05
2.96441e-05
1.77586e-05
5.93322e-06
0.00309867
0.00286091
0.00288319
0.00277941
0.00276428
0.00271073
0.0026845
0.00264753
0.00261981
0.00258952
0.00256285
0.00253596
0.00251078
0.00248602
0.00246225
0.00243902
0.00241647
0.00239443
0.00237292
0.00235186
0.00233122
0.002311
0.00229112
0.00227161
0.0022524
0.00223352
0.00221489
0.00219656
0.00217845
0.00216061
0.00214296
0.00212558
0.00210834
0.00209136
0.0020745
0.0020579
0.00204138
0.00202511
0.00200891
0.00199295
0.00197703
0.00196137
0.00194571
0.00193033
0.00191491
0.00189977
0.00188458
0.00186968
0.0018547
0.00184002
0.00182523
0.00181076
0.00179615
0.00178187
0.00176743
0.00175334
0.00173906
0.00172513
0.00171101
0.00169723
0.00168326
0.00166963
0.00165579
0.0016423
0.0016286
0.00161523
0.00160166
0.00158841
0.00157497
0.00156182
0.00154851
0.00153545
0.00152225
0.00150927
0.00149617
0.00148326
0.00147027
0.00145742
0.00144453
0.00143175
0.00141897
0.00140627
0.00139361
0.00138101
0.00136849
0.00135601
0.00134366
0.00133132
0.00131915
0.00130695
0.00129495
0.0012829
0.00127104
0.00125911
0.00124737
0.00123552
0.00122386
0.00121206
0.00120044
0.00118866
0.00117705
0.00116525
0.00115363
0.00114182
0.00113018
0.00111833
0.00110667
0.00109479
0.00108311
0.00107121
0.00105952
0.00104759
0.00103589
0.00102396
0.00101224
0.0010003
0.000988573
0.000976644
0.000964899
0.00095298
0.00094122
0.000929313
0.000917539
0.000905645
0.000893858
0.000881974
0.000870178
0.000858302
0.000846498
0.000834628
0.00082282
0.000810953
0.000799143
0.000787278
0.000775467
0.000763602
0.00075179
0.000739926
0.000728113
0.00071625
0.000704436
0.000692574
0.00068076
0.000668898
0.000657083
0.000645222
0.000633407
0.000621545
0.000609731
0.000597869
0.000586054
0.000574193
0.000562378
0.000550516
0.000538702
0.00052684
0.000515025
0.000503164
0.000491348
0.000479488
0.000467671
0.000455813
0.000443994
0.000432137
0.000420317
0.000408462
0.00039664
0.000384787
0.000372962
0.000361111
0.000349286
0.000337435
0.000325609
0.000313759
0.000301933
0.000290083
0.000278256
0.000266407
0.00025458
0.00024273
0.000230904
0.000219054
0.000207228
0.000195377
0.000183552
0.0001717
0.000159876
0.000148024
0.0001362
0.000124347
0.000112523
0.000100671
8.88467e-05
7.69953e-05
6.51693e-05
5.33204e-05
4.14884e-05
2.96442e-05
1.77607e-05
5.93535e-06
0.0030994
0.00286059
0.00288304
0.00277932
0.00276422
0.0027107
0.00268448
0.00264751
0.00261979
0.00258951
0.00256283
0.00253595
0.00251077
0.00248601
0.00246225
0.00243901
0.00241646
0.00239442
0.00237291
0.00235185
0.00233122
0.00231099
0.00229112
0.00227161
0.0022524
0.00223351
0.00221489
0.00219656
0.00217844
0.00216061
0.00214296
0.00212558
0.00210834
0.00209136
0.0020745
0.00205789
0.00204138
0.00202511
0.0020089
0.00199295
0.00197703
0.00196137
0.00194571
0.00193033
0.00191491
0.00189977
0.00188458
0.00186968
0.00185469
0.00184002
0.00182523
0.00181076
0.00179615
0.00178187
0.00176743
0.00175333
0.00173906
0.00172513
0.00171101
0.00169723
0.00168326
0.00166963
0.00165579
0.0016423
0.0016286
0.00161523
0.00160166
0.00158841
0.00157497
0.00156182
0.00154851
0.00153545
0.00152225
0.00150927
0.00149617
0.00148326
0.00147027
0.00145742
0.00144453
0.00143175
0.00141897
0.00140627
0.00139361
0.00138101
0.00136849
0.00135601
0.00134366
0.00133132
0.00131914
0.00130695
0.00129495
0.0012829
0.00127104
0.00125911
0.00124737
0.00123552
0.00122386
0.00121206
0.00120044
0.00118866
0.00117705
0.00116525
0.00115363
0.00114182
0.00113018
0.00111833
0.00110667
0.00109479
0.00108311
0.00107121
0.00105952
0.00104759
0.00103589
0.00102396
0.00101224
0.0010003
0.000988573
0.000976644
0.000964899
0.00095298
0.00094122
0.000929313
0.000917539
0.000905645
0.000893858
0.000881974
0.000870178
0.000858302
0.000846498
0.000834628
0.00082282
0.000810953
0.000799143
0.000787278
0.000775467
0.000763602
0.00075179
0.000739926
0.000728113
0.00071625
0.000704436
0.000692574
0.00068076
0.000668898
0.000657083
0.000645222
0.000633407
0.000621545
0.000609731
0.000597869
0.000586054
0.000574193
0.000562378
0.000550516
0.000538702
0.00052684
0.000515025
0.000503164
0.000491348
0.000479488
0.000467671
0.000455813
0.000443994
0.000432137
0.000420317
0.000408462
0.00039664
0.000384787
0.000372962
0.000361111
0.000349286
0.000337435
0.000325609
0.000313759
0.000301933
0.000290083
0.000278256
0.000266407
0.00025458
0.00024273
0.000230904
0.000219054
0.000207228
0.000195377
0.000183552
0.0001717
0.000159876
0.000148024
0.0001362
0.000124347
0.000112523
0.000100671
8.88468e-05
7.69953e-05
6.51694e-05
5.33204e-05
4.14886e-05
2.96444e-05
1.77632e-05
5.93783e-06
0.00310024
0.00286022
0.00288288
0.00277922
0.00276416
0.00271066
0.00268445
0.00264749
0.00261977
0.00258949
0.00256282
0.00253594
0.00251076
0.002486
0.00246224
0.002439
0.00241646
0.00239442
0.0023729
0.00235185
0.00233121
0.00231099
0.00229112
0.0022716
0.00225239
0.00223351
0.00221488
0.00219655
0.00217844
0.00216061
0.00214296
0.00212557
0.00210834
0.00209136
0.0020745
0.00205789
0.00204137
0.00202511
0.0020089
0.00199295
0.00197703
0.00196137
0.00194571
0.00193032
0.00191491
0.00189977
0.00188458
0.00186968
0.00185469
0.00184002
0.00182522
0.00181076
0.00179614
0.00178187
0.00176743
0.00175333
0.00173906
0.00172513
0.00171101
0.00169723
0.00168326
0.00166963
0.00165579
0.0016423
0.0016286
0.00161523
0.00160166
0.00158841
0.00157497
0.00156182
0.00154851
0.00153545
0.00152225
0.00150927
0.00149617
0.00148326
0.00147027
0.00145742
0.00144453
0.00143175
0.00141897
0.00140627
0.00139361
0.00138101
0.00136849
0.00135601
0.00134366
0.00133132
0.00131914
0.00130695
0.00129495
0.0012829
0.00127104
0.00125911
0.00124737
0.00123552
0.00122386
0.00121206
0.00120044
0.00118866
0.00117705
0.00116525
0.00115363
0.00114182
0.00113018
0.00111833
0.00110667
0.00109479
0.00108311
0.00107121
0.00105952
0.00104759
0.00103589
0.00102396
0.00101224
0.0010003
0.000988573
0.000976644
0.000964899
0.00095298
0.00094122
0.000929313
0.000917539
0.000905645
0.000893858
0.000881974
0.000870178
0.000858302
0.000846498
0.000834628
0.00082282
0.000810953
0.000799143
0.000787278
0.000775467
0.000763602
0.00075179
0.000739926
0.000728113
0.00071625
0.000704436
0.000692574
0.00068076
0.000668898
0.000657083
0.000645222
0.000633407
0.000621545
0.000609731
0.000597869
0.000586054
0.000574193
0.000562378
0.000550516
0.000538702
0.00052684
0.000515025
0.000503164
0.000491348
0.000479488
0.000467671
0.000455813
0.000443994
0.000432137
0.000420317
0.000408462
0.00039664
0.000384787
0.000372962
0.000361111
0.000349286
0.000337435
0.000325609
0.000313759
0.000301933
0.000290083
0.000278256
0.000266407
0.00025458
0.00024273
0.000230904
0.000219054
0.000207228
0.000195377
0.000183552
0.0001717
0.000159876
0.000148024
0.0001362
0.000124347
0.000112523
0.000100671
8.88468e-05
7.69953e-05
6.51694e-05
5.33203e-05
4.14887e-05
2.96445e-05
1.77659e-05
5.9406e-06
0.00310119
0.00285981
0.00288269
0.00277911
0.00276409
0.00271061
0.00268441
0.00264746
0.00261975
0.00258947
0.0025628
0.00253592
0.00251075
0.00248599
0.00246223
0.002439
0.00241645
0.00239441
0.0023729
0.00235184
0.00233121
0.00231098
0.00229111
0.0022716
0.00225239
0.0022335
0.00221488
0.00219655
0.00217844
0.0021606
0.00214296
0.00212557
0.00210834
0.00209136
0.0020745
0.00205789
0.00204137
0.00202511
0.0020089
0.00199295
0.00197703
0.00196137
0.00194571
0.00193032
0.0019149
0.00189977
0.00188458
0.00186968
0.00185469
0.00184002
0.00182522
0.00181075
0.00179614
0.00178187
0.00176743
0.00175333
0.00173906
0.00172513
0.001711
0.00169723
0.00168326
0.00166963
0.00165579
0.0016423
0.0016286
0.00161523
0.00160166
0.00158841
0.00157497
0.00156182
0.0015485
0.00153545
0.00152224
0.00150926
0.00149617
0.00148326
0.00147027
0.00145742
0.00144453
0.00143175
0.00141897
0.00140627
0.00139361
0.00138101
0.00136849
0.00135601
0.00134366
0.00133132
0.00131914
0.00130695
0.00129495
0.00128289
0.00127104
0.00125911
0.00124737
0.00123552
0.00122386
0.00121206
0.00120044
0.00118866
0.00117705
0.00116525
0.00115363
0.00114182
0.00113018
0.00111833
0.00110667
0.00109479
0.00108311
0.00107121
0.00105952
0.00104759
0.00103589
0.00102396
0.00101224
0.0010003
0.000988573
0.000976644
0.000964899
0.00095298
0.00094122
0.000929313
0.000917539
0.000905645
0.000893858
0.000881975
0.000870178
0.000858302
0.000846498
0.000834628
0.00082282
0.000810953
0.000799143
0.000787278
0.000775467
0.000763602
0.00075179
0.000739926
0.000728113
0.00071625
0.000704436
0.000692574
0.00068076
0.000668898
0.000657083
0.000645222
0.000633407
0.000621545
0.000609731
0.000597869
0.000586054
0.000574193
0.000562378
0.000550516
0.000538702
0.00052684
0.000515025
0.000503164
0.000491348
0.000479488
0.000467671
0.000455813
0.000443994
0.000432137
0.000420317
0.000408462
0.00039664
0.000384787
0.000372962
0.000361111
0.000349286
0.000337435
0.000325609
0.000313759
0.000301933
0.000290083
0.000278256
0.000266407
0.00025458
0.00024273
0.000230904
0.000219054
0.000207228
0.000195377
0.000183552
0.0001717
0.000159876
0.000148024
0.0001362
0.000124347
0.000112523
0.000100671
8.88468e-05
7.69953e-05
6.51694e-05
5.33203e-05
4.14888e-05
2.96447e-05
1.77689e-05
5.94364e-06
0.00310224
0.00285935
0.00288248
0.00277899
0.00276401
0.00271057
0.00268438
0.00264744
0.00261973
0.00258946
0.00256279
0.00253591
0.00251074
0.00248598
0.00246222
0.00243899
0.00241644
0.0023944
0.00237289
0.00235183
0.0023312
0.00231097
0.0022911
0.00227159
0.00225238
0.0022335
0.00221487
0.00219654
0.00217843
0.0021606
0.00214295
0.00212557
0.00210833
0.00209135
0.0020745
0.00205789
0.00204137
0.0020251
0.0020089
0.00199295
0.00197703
0.00196137
0.00194571
0.00193032
0.0019149
0.00189977
0.00188457
0.00186968
0.00185469
0.00184002
0.00182522
0.00181075
0.00179614
0.00178187
0.00176743
0.00175333
0.00173905
0.00172513
0.001711
0.00169723
0.00168325
0.00166963
0.00165579
0.0016423
0.0016286
0.00161523
0.00160166
0.00158841
0.00157497
0.00156182
0.0015485
0.00153545
0.00152224
0.00150926
0.00149617
0.00148326
0.00147027
0.00145742
0.00144453
0.00143175
0.00141897
0.00140627
0.00139361
0.00138101
0.00136849
0.00135601
0.00134366
0.00133132
0.00131914
0.00130695
0.00129494
0.00128289
0.00127104
0.00125911
0.00124737
0.00123552
0.00122386
0.00121206
0.00120044
0.00118866
0.00117705
0.00116525
0.00115363
0.00114182
0.00113018
0.00111833
0.00110667
0.00109479
0.00108311
0.00107121
0.00105952
0.00104759
0.00103589
0.00102396
0.00101224
0.0010003
0.000988573
0.000976644
0.000964899
0.00095298
0.000941221
0.000929313
0.000917539
0.000905645
0.000893858
0.000881975
0.000870178
0.000858302
0.000846498
0.000834628
0.00082282
0.000810953
0.000799143
0.000787278
0.000775467
0.000763602
0.00075179
0.000739926
0.000728113
0.00071625
0.000704436
0.000692574
0.00068076
0.000668898
0.000657083
0.000645222
0.000633407
0.000621545
0.000609731
0.000597869
0.000586054
0.000574193
0.000562378
0.000550516
0.000538702
0.00052684
0.000515025
0.000503164
0.000491348
0.000479488
0.000467671
0.000455813
0.000443994
0.000432137
0.000420317
0.000408462
0.00039664
0.000384787
0.000372962
0.000361111
0.000349286
0.000337435
0.000325609
0.000313759
0.000301933
0.000290083
0.000278256
0.000266407
0.00025458
0.00024273
0.000230904
0.000219054
0.000207228
0.000195377
0.000183552
0.0001717
0.000159876
0.000148024
0.0001362
0.000124347
0.000112523
0.000100671
8.88468e-05
7.69953e-05
6.51694e-05
5.33203e-05
4.1489e-05
2.96449e-05
1.77721e-05
5.94687e-06
0.0031034
0.00285884
0.00288225
0.00277886
0.00276392
0.00271051
0.00268434
0.0026474
0.00261971
0.00258943
0.00256277
0.00253589
0.00251072
0.00248597
0.0024622
0.00243897
0.00241643
0.00239439
0.00237288
0.00235182
0.00233119
0.00231097
0.0022911
0.00227159
0.00225238
0.00223349
0.00221487
0.00219654
0.00217843
0.0021606
0.00214295
0.00212556
0.00210833
0.00209135
0.00207449
0.00205788
0.00204137
0.0020251
0.0020089
0.00199294
0.00197702
0.00196136
0.0019457
0.00193032
0.0019149
0.00189977
0.00188457
0.00186968
0.00185469
0.00184001
0.00182522
0.00181075
0.00179614
0.00178187
0.00176743
0.00175333
0.00173905
0.00172513
0.001711
0.00169723
0.00168325
0.00166963
0.00165579
0.00164229
0.0016286
0.00161523
0.00160166
0.00158841
0.00157497
0.00156182
0.0015485
0.00153544
0.00152224
0.00150926
0.00149617
0.00148326
0.00147026
0.00145742
0.00144453
0.00143175
0.00141897
0.00140627
0.00139361
0.00138101
0.00136849
0.00135601
0.00134366
0.00133132
0.00131914
0.00130695
0.00129494
0.00128289
0.00127104
0.00125911
0.00124737
0.00123552
0.00122386
0.00121206
0.00120044
0.00118866
0.00117705
0.00116525
0.00115363
0.00114182
0.00113018
0.00111833
0.00110667
0.00109479
0.00108311
0.00107121
0.00105952
0.00104759
0.00103589
0.00102396
0.00101224
0.0010003
0.000988573
0.000976644
0.000964899
0.00095298
0.000941221
0.000929313
0.000917539
0.000905645
0.000893858
0.000881975
0.000870178
0.000858302
0.000846498
0.000834628
0.00082282
0.000810953
0.000799143
0.000787278
0.000775467
0.000763602
0.00075179
0.000739926
0.000728113
0.00071625
0.000704436
0.000692574
0.00068076
0.000668898
0.000657083
0.000645222
0.000633407
0.000621545
0.000609731
0.000597869
0.000586054
0.000574193
0.000562378
0.000550516
0.000538702
0.00052684
0.000515025
0.000503164
0.000491348
0.000479488
0.000467671
0.000455813
0.000443994
0.000432137
0.000420317
0.000408462
0.00039664
0.000384787
0.000372962
0.000361111
0.000349286
0.000337435
0.000325609
0.000313759
0.000301933
0.000290083
0.000278256
0.000266407
0.00025458
0.00024273
0.000230904
0.000219054
0.000207228
0.000195377
0.000183552
0.0001717
0.000159876
0.000148024
0.0001362
0.000124347
0.000112523
0.000100671
8.88468e-05
7.69953e-05
6.51694e-05
5.33203e-05
4.14892e-05
2.9645e-05
1.77755e-05
5.95025e-06
0.00310466
0.00285828
0.002882
0.00277871
0.00276382
0.00271045
0.00268429
0.00264737
0.00261968
0.00258941
0.00256275
0.00253588
0.00251071
0.00248595
0.00246219
0.00243896
0.00241642
0.00239438
0.00237287
0.00235182
0.00233119
0.00231096
0.00229109
0.00227158
0.00225237
0.00223349
0.00221486
0.00219653
0.00217843
0.00216059
0.00214294
0.00212556
0.00210833
0.00209135
0.00207449
0.00205788
0.00204136
0.0020251
0.00200889
0.00199294
0.00197702
0.00196136
0.0019457
0.00193032
0.0019149
0.00189977
0.00188457
0.00186967
0.00185469
0.00184001
0.00182522
0.00181075
0.00179614
0.00178186
0.00176742
0.00175333
0.00173905
0.00172512
0.001711
0.00169723
0.00168325
0.00166962
0.00165579
0.00164229
0.00162859
0.00161522
0.00160166
0.0015884
0.00157497
0.00156182
0.0015485
0.00153544
0.00152224
0.00150926
0.00149617
0.00148326
0.00147026
0.00145742
0.00144453
0.00143175
0.00141896
0.00140627
0.00139361
0.001381
0.00136849
0.00135601
0.00134366
0.00133132
0.00131914
0.00130695
0.00129494
0.00128289
0.00127104
0.00125911
0.00124737
0.00123552
0.00122386
0.00121206
0.00120044
0.00118866
0.00117705
0.00116525
0.00115363
0.00114182
0.00113018
0.00111833
0.00110667
0.00109479
0.00108311
0.00107121
0.00105952
0.00104759
0.00103589
0.00102396
0.00101224
0.0010003
0.000988573
0.000976644
0.0009649
0.00095298
0.000941221
0.000929313
0.000917539
0.000905645
0.000893858
0.000881975
0.000870178
0.000858302
0.000846498
0.000834628
0.00082282
0.000810953
0.000799143
0.000787278
0.000775467
0.000763602
0.00075179
0.000739926
0.000728113
0.00071625
0.000704436
0.000692574
0.00068076
0.000668898
0.000657083
0.000645222
0.000633407
0.000621545
0.000609731
0.000597869
0.000586054
0.000574193
0.000562378
0.000550516
0.000538702
0.00052684
0.000515025
0.000503164
0.000491348
0.000479488
0.000467671
0.000455813
0.000443994
0.000432137
0.000420317
0.000408462
0.00039664
0.000384787
0.000372962
0.000361111
0.000349286
0.000337435
0.000325609
0.000313759
0.000301933
0.000290083
0.000278256