/*--------------------------------*- C++ -*----------------------------------*\
| =========                 |                                                 |
| \\      /  F ield         | OpenFOAM: The Open Source CFD Toolbox           |
|  \\    /   O peration     | Version:  2412                                  |
|   \\  /    A nd           | Website:  www.openfoam.com                      |
|    \\/     M anipulation  |                                                 |
\*---------------------------------------------------------------------------*/
FoamFile
{
    version     2.0;
    format      ascii;
    arch        "LSB;label=32;scalar=64";
    class       surfaceScalarField;
    location    "400";
    object      phi;
}
// * * * * * * * * * * * * * * * * * * * * * * * * * * * * * * * * * * * * * //

dimensions      [0 3 -1 0 0 0 0];

oriented        oriented;

internalField   nonuniform List<scalar> 
15760
(
1.31109e-08
-6.1095e-10
1.3527e-08
-4.16012e-10
1.37776e-08
-2.50656e-10
1.40115e-08
-2.33881e-10
1.41854e-08
-1.73853e-10
1.43506e-08
-1.65214e-10
1.44948e-08
-1.44269e-10
1.46315e-08
-1.36687e-10
1.4758e-08
-1.26454e-10
1.48782e-08
-1.20272e-10
1.49921e-08
-1.13871e-10
1.51011e-08
-1.08984e-10
1.52055e-08
-1.04375e-10
1.53059e-08
-1.00466e-10
1.54028e-08
-9.6861e-11
1.54964e-08
-9.36392e-11
1.55871e-08
-9.0658e-11
1.5675e-08
-8.791e-11
1.57604e-08
-8.53369e-11
1.58433e-08
-8.29143e-11
1.59239e-08
-8.06178e-11
1.60023e-08
-7.84214e-11
1.60786e-08
-7.63189e-11
1.61529e-08
-7.42842e-11
1.62252e-08
-7.23242e-11
1.62956e-08
-7.04105e-11
1.63642e-08
-6.85618e-11
1.64309e-08
-6.67439e-11
1.64959e-08
-6.49883e-11
1.65592e-08
-6.32512e-11
1.66208e-08
-6.15789e-11
1.66807e-08
-5.99136e-11
1.6739e-08
-5.83196e-11
1.67957e-08
-5.67207e-11
1.68509e-08
-5.52031e-11
1.69046e-08
-5.3667e-11
1.69568e-08
-5.22253e-11
1.70076e-08
-5.07492e-11
1.70569e-08
-4.93838e-11
1.71049e-08
-4.79649e-11
1.71516e-08
-4.66764e-11
1.71969e-08
-4.53122e-11
1.7241e-08
-4.41011e-11
1.72838e-08
-4.27885e-11
1.73254e-08
-4.16547e-11
1.73658e-08
-4.03904e-11
1.74052e-08
-3.9334e-11
1.74433e-08
-3.81152e-11
1.74804e-08
-3.71362e-11
1.75164e-08
-3.596e-11
1.75514e-08
-3.50571e-11
1.75854e-08
-3.39189e-11
1.76184e-08
-3.30892e-11
1.76504e-08
-3.19855e-11
1.76817e-08
-3.12276e-11
1.77118e-08
-3.01581e-11
1.77413e-08
-2.94731e-11
1.77697e-08
-2.84388e-11
1.77976e-08
-2.78245e-11
1.78244e-08
-2.68214e-11
1.78506e-08
-2.62683e-11
1.78759e-08
-2.52873e-11
1.79007e-08
-2.47833e-11
1.79245e-08
-2.38198e-11
1.79479e-08
-2.33613e-11
1.79703e-08
-2.24234e-11
1.79923e-08
-2.20197e-11
1.80135e-08
-2.11273e-11
1.80343e-08
-2.07926e-11
1.80542e-08
-1.99645e-11
1.80739e-08
-1.97038e-11
1.80929e-08
-1.89443e-11
1.81116e-08
-1.87431e-11
1.81296e-08
-1.80344e-11
1.81475e-08
-1.7854e-11
1.81647e-08
-1.71545e-11
1.81816e-08
-1.69333e-11
1.81978e-08
-1.61805e-11
1.82136e-08
-1.58404e-11
1.82286e-08
-1.49616e-11
1.8243e-08
-1.44244e-11
1.82564e-08
-1.33581e-11
1.82689e-08
-1.25719e-11
1.82802e-08
-1.12975e-11
1.82905e-08
-1.02652e-11
1.82993e-08
-8.82547e-12
1.83069e-08
-7.61833e-12
1.83131e-08
-6.12178e-12
1.83179e-08
-4.86738e-12
1.83214e-08
-3.46226e-12
1.83237e-08
-2.30801e-12
1.83248e-08
-1.13919e-12
1.8325e-08
-2.07737e-13
1.83244e-08
6.2563e-13
1.83231e-08
1.2693e-12
1.83214e-08
1.73738e-12
1.83193e-08
2.0945e-12
1.83171e-08
2.23521e-12
1.83147e-08
2.35801e-12
1.83125e-08
2.25567e-12
1.83102e-08
2.2198e-12
1.83083e-08
1.976e-12
1.83064e-08
1.85447e-12
1.83049e-08
1.56201e-12
1.83034e-08
1.41023e-12
1.83023e-08
1.1359e-12
1.83013e-08
9.89506e-13
1.83006e-08
7.67067e-13
1.82999e-08
6.47955e-13
1.82994e-08
4.801e-13
1.8299e-08
4.03929e-13
1.82987e-08
2.71206e-13
1.82985e-08
2.50918e-13
1.82984e-08
1.2467e-13
1.82982e-08
1.68943e-13
1.82982e-08
2.42698e-14
1.8298e-08
1.33536e-13
1.82981e-08
-4.18456e-14
1.8298e-08
1.22205e-13
1.8298e-08
-8.11768e-14
1.82979e-08
1.18258e-13
1.8298e-08
-9.89597e-14
1.82979e-08
1.12008e-13
1.8298e-08
-9.99682e-14
1.82979e-08
9.9891e-14
1.8298e-08
-8.92353e-14
1.82979e-08
8.25525e-14
1.8298e-08
-7.1978e-14
1.82979e-08
6.29376e-14
1.8298e-08
-5.32062e-14
1.82979e-08
4.47375e-14
1.8298e-08
-3.71509e-14
1.82979e-08
3.10693e-14
1.8298e-08
-2.64447e-14
1.82979e-08
2.32831e-14
1.8298e-08
-2.13569e-14
1.82979e-08
2.03389e-14
1.8298e-08
-1.98188e-14
1.82979e-08
1.94097e-14
1.8298e-08
-1.87784e-14
1.8298e-08
1.77651e-14
1.8298e-08
-1.6328e-14
1.8298e-08
1.46282e-14
1.8298e-08
-1.28563e-14
1.8298e-08
1.12863e-14
1.8298e-08
-1.00379e-14
1.8298e-08
9.19731e-15
1.8298e-08
-8.637e-15
1.8298e-08
8.24313e-15
1.8298e-08
-7.80494e-15
1.8298e-08
7.27404e-15
1.8298e-08
-6.62564e-15
1.8298e-08
6.02819e-15
1.8298e-08
-5.59112e-15
1.8298e-08
5.48457e-15
1.8298e-08
-5.69853e-15
1.8298e-08
6.24902e-15
1.8298e-08
-7.03116e-15
1.8298e-08
8.05381e-15
1.8298e-08
-9.24408e-15
1.8298e-08
1.06423e-14
1.8298e-08
-1.21162e-14
1.8298e-08
1.35329e-14
1.8298e-08
-1.45724e-14
1.8298e-08
1.50275e-14
1.8298e-08
-1.46809e-14
1.8298e-08
1.35723e-14
1.8298e-08
-1.175e-14
1.8298e-08
9.48285e-15
1.8298e-08
-6.95539e-15
1.8298e-08
4.53007e-15
1.8298e-08
-2.4578e-15
1.8298e-08
1.07251e-15
1.8298e-08
-4.50009e-16
1.8298e-08
5.66394e-16
1.8298e-08
-9.64259e-16
1.8298e-08
1.19025e-15
1.8298e-08
-6.25369e-16
1.8298e-08
-9.60669e-16
1.8298e-08
3.57274e-15
1.8298e-08
-6.65216e-15
1.8298e-08
9.49194e-15
1.8298e-08
-1.12292e-14
1.8298e-08
1.14702e-14
1.8298e-08
-1.00957e-14
1.8298e-08
7.56921e-15
1.8298e-08
-4.40166e-15
1.8298e-08
1.38332e-15
1.8298e-08
1.0045e-15
1.8298e-08
-2.75611e-15
1.8298e-08
5.12073e-15
1.8298e-08
-9.82555e-15
1.82979e-08
1.82217e-14
1.8298e-08
-3.06843e-14
1.82979e-08
4.76258e-14
1.8298e-08
-8.02253e-14
1.82979e-08
1.25711e-13
1.82982e-08
-3.50187e-13
1.82977e-08
4.88307e-13
-1.26102e-12
1.31373e-08
-1.24828e-09
1.35107e-08
-7.89395e-10
1.37873e-08
-5.27221e-10
1.40066e-08
-4.53192e-10
1.41887e-08
-3.55915e-10
1.43495e-08
-3.26071e-10
1.44962e-08
-2.90976e-10
1.46316e-08
-2.72063e-10
1.47588e-08
-2.53659e-10
1.48787e-08
-2.40144e-10
1.49928e-08
-2.27985e-10
1.51016e-08
-2.17843e-10
1.52061e-08
-2.08825e-10
1.53065e-08
-2.0088e-10
1.54034e-08
-1.93725e-10
1.5497e-08
-1.87229e-10
1.55876e-08
-1.8127e-10
1.56754e-08
-1.75742e-10
1.57607e-08
-1.70579e-10
1.58434e-08
-1.65709e-10
1.59239e-08
-1.61091e-10
1.60022e-08
-1.56675e-10
1.60783e-08
-1.52443e-10
1.61524e-08
-1.48354e-10
1.62244e-08
-1.44406e-10
1.62946e-08
-1.40562e-10
1.63629e-08
-1.36838e-10
1.64293e-08
-1.33192e-10
1.6494e-08
-1.29654e-10
1.65569e-08
-1.26175e-10
1.66181e-08
-1.22806e-10
1.66777e-08
-1.19477e-10
1.67356e-08
-1.16264e-10
1.6792e-08
-1.13075e-10
1.68468e-08
-1.10015e-10
1.69001e-08
-1.06957e-10
1.69519e-08
-1.04048e-10
1.70023e-08
-1.01118e-10
1.70513e-08
-9.83592e-11
1.70989e-08
-9.55501e-11
1.71451e-08
-9.29425e-11
1.71901e-08
-9.02497e-11
1.72338e-08
-8.77932e-11
1.72762e-08
-8.52106e-11
1.73174e-08
-8.29047e-11
1.73575e-08
-8.04255e-11
1.73964e-08
-7.82695e-11
1.74342e-08
-7.58879e-11
1.74709e-08
-7.3882e-11
1.75065e-08
-7.15917e-11
1.75412e-08
-6.9733e-11
1.75748e-08
-6.7525e-11
1.76075e-08
-6.58081e-11
1.76392e-08
-6.36739e-11
1.76701e-08
-6.20963e-11
1.77e-08
-6.00345e-11
1.77291e-08
-5.85985e-11
1.77573e-08
-5.66101e-11
1.77848e-08
-5.5313e-11
1.78113e-08
-5.33898e-11
1.78373e-08
-5.22145e-11
1.78623e-08
-5.03377e-11
1.78868e-08
-4.92613e-11
1.79104e-08
-4.74188e-11
1.79335e-08
-4.64337e-11
1.79557e-08
-4.46388e-11
1.79774e-08
-4.37629e-11
1.79984e-08
-4.20523e-11
1.80189e-08
-4.13151e-11
1.80386e-08
-3.97256e-11
1.80581e-08
-3.91404e-11
1.80768e-08
-3.76822e-11
1.80953e-08
-3.72246e-11
1.81131e-08
-3.58649e-11
1.81307e-08
-3.54632e-11
1.81477e-08
-3.41224e-11
1.81644e-08
-3.36585e-11
1.81805e-08
-3.22151e-11
1.81962e-08
-3.15368e-11
1.82111e-08
-2.98466e-11
1.82254e-08
-2.87976e-11
1.82388e-08
-2.67353e-11
1.82514e-08
-2.52069e-11
1.82629e-08
-2.27236e-11
1.82733e-08
-2.07115e-11
1.82824e-08
-1.78823e-11
1.82903e-08
-1.5517e-11
1.82967e-08
-1.25481e-11
1.83019e-08
-1.00746e-11
1.83057e-08
-7.25651e-12
1.83083e-08
-4.96524e-12
1.83098e-08
-2.5885e-12
1.83103e-08
-7.27313e-13
1.83099e-08
1.00244e-12
1.83089e-08
2.29574e-12
1.83073e-08
3.30819e-12
1.83054e-08
4.02641e-12
1.83033e-08
4.38715e-12
1.8301e-08
4.62675e-12
1.82987e-08
4.49741e-12
1.82966e-08
4.40524e-12
1.82946e-08
3.98608e-12
1.82927e-08
3.70766e-12
1.82911e-08
3.18454e-12
1.82897e-08
2.83318e-12
1.82884e-08
2.34152e-12
1.82874e-08
1.99251e-12
1.82866e-08
1.60172e-12
1.8286e-08
1.30319e-12
1.82854e-08
1.01992e-12
1.8285e-08
8.06762e-13
1.82847e-08
5.92595e-13
1.82845e-08
4.93091e-13
1.82843e-08
2.90741e-13
1.82841e-08
3.23453e-13
1.82841e-08
8.2894e-14
1.8284e-08
2.49121e-13
1.8284e-08
-5.46224e-14
1.82839e-08
2.24855e-13
1.82839e-08
-1.37261e-13
1.82838e-08
2.1686e-13
1.82839e-08
-1.76013e-13
1.82838e-08
2.05334e-13
1.82839e-08
-1.80792e-13
1.82838e-08
1.82727e-13
1.82839e-08
-1.61836e-13
1.82838e-08
1.49987e-13
1.82839e-08
-1.29626e-13
1.82838e-08
1.1275e-13
1.82839e-08
-9.41706e-14
1.82838e-08
7.82301e-14
1.82839e-08
-6.3882e-14
1.82838e-08
5.25163e-14
1.82838e-08
-4.39302e-14
1.82838e-08
3.81716e-14
1.82838e-08
-3.47523e-14
1.82838e-08
3.30311e-14
1.82838e-08
-3.21972e-14
1.82838e-08
3.15008e-14
1.82838e-08
-3.03079e-14
1.82838e-08
2.83322e-14
1.82838e-08
-2.55196e-14
1.82838e-08
2.22076e-14
1.82838e-08
-1.87791e-14
1.82838e-08
1.57684e-14
1.82838e-08
-1.33948e-14
1.82838e-08
1.18065e-14
1.82838e-08
-1.0738e-14
1.82838e-08
9.96453e-15
1.82838e-08
-9.08034e-15
1.82838e-08
8.00831e-15
1.82838e-08
-6.72808e-15
1.82838e-08
5.58425e-15
1.82838e-08
-4.78755e-15
1.82838e-08
4.67436e-15
1.82838e-08
-5.21726e-15
1.82838e-08
6.43266e-15
1.82838e-08
-8.1244e-15
1.82838e-08
1.03199e-14
1.82838e-08
-1.28621e-14
1.82838e-08
1.58277e-14
1.82838e-08
-1.89362e-14
1.82838e-08
2.1886e-14
1.82838e-08
-2.40477e-14
1.82838e-08
2.50143e-14
1.82838e-08
-2.43691e-14
1.82838e-08
2.22232e-14
1.82838e-08
-1.86771e-14
1.82838e-08
1.42755e-14
1.82838e-08
-9.3963e-15
1.82838e-08
4.75446e-15
1.82838e-08
-8.50336e-16
1.82838e-08
-1.6792e-15
1.82838e-08
2.71442e-15
1.82838e-08
-2.35947e-15
1.82838e-08
1.57015e-15
1.82838e-08
-1.25237e-15
1.82838e-08
2.61339e-15
1.82838e-08
-6.03436e-15
1.82838e-08
1.14404e-14
1.82838e-08
-1.76493e-14
1.82838e-08
2.32397e-14
1.82838e-08
-2.65627e-14
1.82838e-08
2.6932e-14
1.82838e-08
-2.42075e-14
1.82838e-08
1.93539e-14
1.82838e-08
-1.33963e-14
1.82838e-08
7.88334e-15
1.82838e-08
-3.71761e-15
1.82838e-08
8.13878e-16
1.82838e-08
3.35321e-15
1.82838e-08
-1.20101e-14
1.82838e-08
2.73889e-14
1.82839e-08
-4.96379e-14
1.82838e-08
7.87593e-14
1.82839e-08
-1.34148e-13
1.82838e-08
2.01749e-13
1.8284e-08
-5.63175e-13
1.82841e-08
3.66557e-13
-3.35938e-12
1.31379e-08
-1.88621e-09
1.35118e-08
-1.16324e-09
1.37883e-08
-8.03789e-10
1.40077e-08
-6.7251e-10
1.41897e-08
-5.37994e-10
1.43506e-08
-4.86942e-10
1.44973e-08
-4.37698e-10
1.46327e-08
-4.07455e-10
1.47599e-08
-3.80882e-10
1.48798e-08
-3.60032e-10
1.4994e-08
-3.42112e-10
1.51028e-08
-3.2671e-10
1.52073e-08
-3.13271e-10
1.53077e-08
-3.01271e-10
1.54045e-08
-2.90541e-10
1.5498e-08
-2.80739e-10
1.55885e-08
-2.71765e-10
1.56762e-08
-2.63416e-10
1.57612e-08
-2.55618e-10
1.58437e-08
-2.48251e-10
1.59239e-08
-2.41263e-10
1.60018e-08
-2.34578e-10
1.60775e-08
-2.28167e-10
1.61512e-08
-2.21975e-10
1.62227e-08
-2.15995e-10
1.62924e-08
-2.10179e-10
1.63601e-08
-2.0454e-10
1.64259e-08
-1.99027e-10
1.64899e-08
-1.93678e-10
1.65522e-08
-1.88425e-10
1.66127e-08
-1.83336e-10
1.66715e-08
-1.78318e-10
1.67288e-08
-1.73471e-10
1.67844e-08
-1.68672e-10
1.68384e-08
-1.64061e-10
1.68909e-08
-1.59469e-10
1.6942e-08
-1.5509e-10
1.69915e-08
-1.50696e-10
1.70397e-08
-1.46547e-10
1.70865e-08
-1.42343e-10
1.7132e-08
-1.38424e-10
1.71761e-08
-1.34401e-10
1.72191e-08
-1.3071e-10
1.72607e-08
-1.26858e-10
1.73012e-08
-1.23394e-10
1.73405e-08
-1.19703e-10
1.73787e-08
-1.16463e-10
1.74157e-08
-1.12923e-10
1.74517e-08
-1.09908e-10
1.74866e-08
-1.06509e-10
1.75206e-08
-1.03713e-10
1.75535e-08
-1.00443e-10
1.75856e-08
-9.78573e-11
1.76166e-08
-9.47014e-11
1.76468e-08
-9.23222e-11
1.76761e-08
-8.92776e-11
1.77046e-08
-8.71077e-11
1.77322e-08
-8.41756e-11
1.77591e-08
-8.22115e-11
1.77851e-08
-7.93804e-11
1.78104e-08
-7.75979e-11
1.78349e-08
-7.48397e-11
1.78589e-08
-7.32049e-11
1.7882e-08
-7.04998e-11
1.79045e-08
-6.89999e-11
1.79263e-08
-6.63645e-11
1.79475e-08
-6.50241e-11
1.7968e-08
-6.25105e-11
1.7988e-08
-6.13735e-11
1.80073e-08
-5.90366e-11
1.80263e-08
-5.81257e-11
1.80446e-08
-5.59834e-11
1.80627e-08
-5.5267e-11
1.80801e-08
-5.3275e-11
1.80973e-08
-5.26524e-11
1.81138e-08
-5.06971e-11
1.81302e-08
-4.99989e-11
1.81459e-08
-4.79035e-11
1.81612e-08
-4.6907e-11
1.81759e-08
-4.44587e-11
1.819e-08
-4.29312e-11
1.82032e-08
-3.99402e-11
1.82157e-08
-3.77138e-11
1.82271e-08
-3.40973e-11
1.82375e-08
-3.11537e-11
1.82466e-08
-2.70094e-11
1.82547e-08
-2.3528e-11
1.82613e-08
-1.9149e-11
1.82667e-08
-1.54826e-11
1.82707e-08
-1.12931e-11
1.82736e-08
-7.86951e-12
1.82753e-08
-4.30239e-12
1.82761e-08
-1.49531e-12
1.8276e-08
1.13467e-12
1.82751e-08
3.1088e-12
1.82738e-08
4.68387e-12
1.8272e-08
5.80076e-12
1.827e-08
6.40589e-12
1.82678e-08
6.79791e-12
1.82656e-08
6.66504e-12
1.82635e-08
6.54477e-12
1.82615e-08
5.96844e-12
1.82597e-08
5.55206e-12
1.8258e-08
4.80935e-12
1.82566e-08
4.26931e-12
1.82554e-08
3.56426e-12
1.82544e-08
3.01848e-12
1.82535e-08
2.45723e-12
1.82528e-08
1.98311e-12
1.82523e-08
1.57788e-12
1.82518e-08
1.23153e-12
1.82515e-08
9.27102e-13
1.82512e-08
7.52423e-13
1.82511e-08
4.65316e-13
1.82509e-08
4.89747e-13
1.82508e-08
1.47114e-13
1.82507e-08
3.71305e-13
1.82507e-08
-6.29103e-14
1.82506e-08
3.29612e-13
1.82507e-08
-1.88753e-13
1.82506e-08
3.14111e-13
1.82506e-08
-2.47935e-13
1.82506e-08
2.95053e-13
1.82506e-08
-2.56123e-13
1.82506e-08
2.60894e-13
1.82506e-08
-2.29082e-13
1.82506e-08
2.12717e-13
1.82506e-08
-1.82616e-13
1.82506e-08
1.58578e-13
1.82506e-08
-1.31591e-13
1.82506e-08
1.08868e-13
1.82506e-08
-8.83198e-14
1.82506e-08
7.22657e-14
1.82506e-08
-6.01857e-14
1.82506e-08
5.22158e-14
1.82506e-08
-4.75537e-14
1.82506e-08
4.52702e-14
1.82506e-08
-4.41658e-14
1.82506e-08
4.31658e-14
1.82506e-08
-4.13741e-14
1.82506e-08
3.84142e-14
1.82506e-08
-3.42456e-14
1.82506e-08
2.93904e-14
1.82506e-08
-2.44135e-14
1.82506e-08
2.00863e-14
1.82506e-08
-1.67033e-14
1.82506e-08
1.44504e-14
1.82506e-08
-1.29182e-14
1.82506e-08
1.17769e-14
1.82506e-08
-1.04466e-14
1.82506e-08
8.8379e-15
1.82506e-08
-6.95198e-15
1.82506e-08
5.30909e-15
1.82506e-08
-4.20665e-15
1.82506e-08
4.13119e-15
1.82506e-08
-5.03132e-15
1.82506e-08
6.91258e-15
1.82506e-08
-9.4912e-15
1.82506e-08
1.28207e-14
1.82506e-08
-1.66536e-14
1.82506e-08
2.10912e-14
1.82506e-08
-2.57015e-14
1.82506e-08
3.00036e-14
1.82506e-08
-3.30799e-14
1.82506e-08
3.43544e-14
1.82506e-08
-3.32391e-14
1.82506e-08
2.99445e-14
1.82506e-08
-2.46376e-14
1.82506e-08
1.81341e-14
1.82506e-08
-1.10045e-14
1.82506e-08
4.29467e-15
1.82506e-08
1.26937e-15
1.82506e-08
-4.78966e-15
1.82506e-08
6.14578e-15
1.82506e-08
-5.5625e-15
1.82506e-08
4.50554e-15
1.82506e-08
-4.30699e-15
1.82506e-08
6.69895e-15
1.82506e-08
-1.21345e-14
1.82506e-08
2.03891e-14
1.82506e-08
-2.9636e-14
1.82506e-08
3.77806e-14
1.82506e-08
-4.24974e-14
1.82506e-08
4.29215e-14
1.82506e-08
-3.89795e-14
1.82506e-08
3.21593e-14
1.82506e-08
-2.39829e-14
1.82506e-08
1.67046e-14
1.82506e-08
-1.15887e-14
1.82506e-08
8.43245e-15
1.82506e-08
-3.54556e-15
1.82506e-08
-7.45226e-15
1.82506e-08
2.71195e-14
1.82506e-08
-5.46671e-14
1.82506e-08
8.84425e-14
1.82506e-08
-1.52775e-13
1.82506e-08
2.14726e-13
1.82507e-08
-6.5455e-13
1.8251e-08
4.87328e-14
-5.87831e-12
1.3139e-08
-2.5252e-09
1.35135e-08
-1.53777e-09
1.379e-08
-1.08029e-09
1.40093e-08
-8.9179e-10
1.41914e-08
-7.20074e-10
1.43523e-08
-6.4782e-10
1.4499e-08
-5.84441e-10
1.46344e-08
-5.42868e-10
1.47617e-08
-5.08131e-10
1.48816e-08
-4.79945e-10
1.49957e-08
-4.56259e-10
1.51046e-08
-4.35582e-10
1.5209e-08
-4.17699e-10
1.53094e-08
-4.01612e-10
1.54061e-08
-3.87266e-10
1.54995e-08
-3.74106e-10
1.55898e-08
-3.62059e-10
1.56772e-08
-3.50822e-10
1.57619e-08
-3.4032e-10
1.5844e-08
-3.30382e-10
1.59237e-08
-3.20951e-10
1.6001e-08
-3.11921e-10
1.60761e-08
-3.03261e-10
1.6149e-08
-2.94894e-10
1.62199e-08
-2.86817e-10
1.62886e-08
-2.78963e-10
1.63555e-08
-2.71355e-10
1.64204e-08
-2.63922e-10
1.64834e-08
-2.56715e-10
1.65446e-08
-2.49646e-10
1.66041e-08
-2.42802e-10
1.66618e-08
-2.36061e-10
1.67179e-08
-2.29558e-10
1.67724e-08
-2.23125e-10
1.68253e-08
-2.1695e-10
1.68766e-08
-2.10807e-10
1.69265e-08
-2.04954e-10
1.69748e-08
-1.99087e-10
1.70218e-08
-1.93551e-10
1.70675e-08
-1.87949e-10
1.71118e-08
-1.82727e-10
1.71547e-08
-1.77375e-10
1.71965e-08
-1.72464e-10
1.7237e-08
-1.67349e-10
1.72763e-08
-1.62745e-10
1.73145e-08
-1.57851e-10
1.73516e-08
-1.53549e-10
1.73875e-08
-1.48862e-10
1.74225e-08
-1.44859e-10
1.74563e-08
-1.40366e-10
1.74893e-08
-1.36657e-10
1.75211e-08
-1.32338e-10
1.75522e-08
-1.28909e-10
1.75822e-08
-1.24748e-10
1.76115e-08
-1.21592e-10
1.76398e-08
-1.17581e-10
1.76674e-08
-1.14701e-10
1.76941e-08
-1.10843e-10
1.77201e-08
-1.08235e-10
1.77452e-08
-1.04515e-10
1.77698e-08
-1.02146e-10
1.77935e-08
-9.85276e-11
1.78166e-08
-9.63548e-11
1.78389e-08
-9.28099e-11
1.78607e-08
-9.08134e-11
1.78817e-08
-8.73607e-11
1.79023e-08
-8.55704e-11
1.79221e-08
-8.22762e-11
1.79414e-08
-8.07488e-11
1.79601e-08
-7.76856e-11
1.79784e-08
-7.64538e-11
1.79961e-08
-7.36481e-11
1.80135e-08
-7.26756e-11
1.80303e-08
-7.00744e-11
1.80469e-08
-6.92351e-11
1.80629e-08
-6.66946e-11
1.80786e-08
-6.57719e-11
1.80938e-08
-6.30646e-11
1.81087e-08
-6.17701e-11
1.81228e-08
-5.86176e-11
1.81365e-08
-5.66451e-11
1.81494e-08
-5.27936e-11
1.81616e-08
-4.99154e-11
1.81727e-08
-4.52452e-11
1.8183e-08
-4.14235e-11
1.8192e-08
-3.60468e-11
1.82e-08
-3.15016e-11
1.82067e-08
-2.5788e-11
1.82121e-08
-2.09698e-11
1.82163e-08
-1.54676e-11
1.82194e-08
-1.09347e-11
1.82213e-08
-6.21354e-12
1.82223e-08
-2.46295e-12
1.82223e-08
1.05363e-12
1.82217e-08
3.72366e-12
1.82205e-08
5.86585e-12
1.82189e-08
7.40722e-12
1.82171e-08
8.27223e-12
1.8215e-08
8.84572e-12
1.8213e-08
8.72857e-12
1.82109e-08
8.60658e-12
1.8209e-08
7.89045e-12
1.82072e-08
7.35686e-12
1.82056e-08
6.40669e-12
1.82042e-08
5.69296e-12
1.82029e-08
4.78007e-12
1.82019e-08
4.04835e-12
1.8201e-08
3.31587e-12
1.82004e-08
2.67481e-12
1.81998e-08
2.14207e-12
1.81994e-08
1.67011e-12
1.8199e-08
1.26743e-12
1.81987e-08
1.02405e-12
1.81986e-08
6.44449e-13
1.81984e-08
6.64934e-13
1.81983e-08
2.15168e-13
1.81982e-08
4.98315e-13
1.81982e-08
-6.72275e-14
1.81981e-08
4.35354e-13
1.81981e-08
-2.35607e-13
1.8198e-08
4.09327e-13
1.81981e-08
-3.14549e-13
1.8198e-08
3.8083e-13
1.81981e-08
-3.25879e-13
1.8198e-08
3.34348e-13
1.81981e-08
-2.91073e-13
1.8198e-08
2.70927e-13
1.81981e-08
-2.31214e-13
1.8198e-08
2.00747e-13
1.81981e-08
-1.65815e-13
1.8198e-08
1.37006e-13
1.81981e-08
-1.10792e-13
1.8198e-08
9.06046e-14
1.81981e-08
-7.54378e-14
1.8198e-08
6.55842e-14
1.81981e-08
-5.9874e-14
1.8198e-08
5.71324e-14
1.81981e-08
-5.57818e-14
1.8198e-08
5.44663e-14
1.81981e-08
-5.20591e-14
1.8198e-08
4.81231e-14
1.81981e-08
-4.26477e-14
1.8198e-08
3.63384e-14
1.8198e-08
-2.99295e-14
1.8198e-08
2.44049e-14
1.8198e-08
-2.0115e-14
1.8198e-08
1.72674e-14
1.8198e-08
-1.53087e-14
1.8198e-08
1.38131e-14
1.8198e-08
-1.2046e-14
1.8198e-08
9.91857e-15
1.8198e-08
-7.46156e-15
1.8198e-08
5.36497e-15
1.8198e-08
-4.0015e-15
1.8198e-08
3.99038e-15
1.8198e-08
-5.253e-15
1.8198e-08
7.77836e-15
1.8198e-08
-1.11981e-14
1.8198e-08
1.55937e-14
1.8198e-08
-2.06256e-14
1.8198e-08
2.6408e-14
1.81981e-08
-3.23593e-14
1.8198e-08
3.78221e-14
1.81981e-08
-4.16131e-14
1.8198e-08
4.30165e-14
1.81981e-08
-4.12995e-14
1.8198e-08
3.67879e-14
1.8198e-08
-2.97238e-14
1.8198e-08
2.11831e-14
1.8198e-08
-1.19204e-14
1.8198e-08
3.28737e-15
1.8198e-08
3.79133e-15
1.8198e-08
-8.19477e-15
1.8198e-08
9.83667e-15
1.8198e-08
-9.08638e-15
1.8198e-08
7.91094e-15
1.8198e-08
-8.03536e-15
1.8198e-08
1.16508e-14
1.81981e-08
-1.92212e-14
1.8198e-08
3.03274e-14
1.81981e-08
-4.25093e-14
1.8198e-08
5.30602e-14
1.81981e-08
-5.90854e-14
1.8198e-08
5.96346e-14
1.81981e-08
-5.47584e-14
1.8198e-08
4.64648e-14
1.81981e-08
-3.67432e-14
1.8198e-08
2.85075e-14
1.81981e-08
-2.33515e-14
1.8198e-08
2.09824e-14
1.81981e-08
-1.67092e-14
1.8198e-08
5.32267e-15
1.81981e-08
1.56173e-14
1.8198e-08
-4.38715e-14
1.81981e-08
7.53582e-14
1.8198e-08
-1.37782e-13
1.81981e-08
1.78376e-13
1.81981e-08
-6.81067e-13
1.81984e-08
-2.85047e-13
-8.55699e-12
1.31405e-08
-3.16571e-09
1.3516e-08
-1.91324e-09
1.37923e-08
-1.35667e-09
1.40115e-08
-1.11099e-09
1.41936e-08
-9.02136e-10
1.43545e-08
-8.08702e-10
1.45013e-08
-7.31208e-10
1.46367e-08
-6.78312e-10
1.4764e-08
-6.35413e-10
1.48839e-08
-5.99888e-10
1.49981e-08
-5.70424e-10
1.5107e-08
-5.44447e-10
1.52113e-08
-5.22085e-10
1.53116e-08
-5.0186e-10
1.54082e-08
-4.83834e-10
1.55013e-08
-4.67241e-10
1.55913e-08
-4.52036e-10
1.56783e-08
-4.37819e-10
1.57625e-08
-4.24516e-10
1.5844e-08
-4.11907e-10
1.5923e-08
-3.99933e-10
1.59995e-08
-3.88458e-10
1.60737e-08
-3.77453e-10
1.61456e-08
-3.6682e-10
1.62154e-08
-3.56561e-10
1.6283e-08
-3.46589e-10
1.63486e-08
-3.3694e-10
1.64122e-08
-3.27518e-10
1.64739e-08
-3.18398e-10
1.65337e-08
-3.09458e-10
1.65917e-08
-3.00819e-10
1.66479e-08
-2.92317e-10
1.67025e-08
-2.84128e-10
1.67554e-08
-2.76034e-10
1.68068e-08
-2.6828e-10
1.68565e-08
-2.6057e-10
1.69048e-08
-2.53238e-10
1.69516e-08
-2.45893e-10
1.6997e-08
-2.38974e-10
1.70411e-08
-2.31974e-10
1.70838e-08
-2.25462e-10
1.71252e-08
-2.18789e-10
1.71654e-08
-2.12676e-10
1.72044e-08
-2.06309e-10
1.72422e-08
-2.00588e-10
1.72789e-08
-1.94505e-10
1.73145e-08
-1.89168e-10
1.7349e-08
-1.83352e-10
1.73825e-08
-1.78392e-10
1.7415e-08
-1.72824e-10
1.74465e-08
-1.68233e-10
1.74771e-08
-1.62888e-10
1.75068e-08
-1.58647e-10
1.75356e-08
-1.53503e-10
1.75636e-08
-1.49602e-10
1.75907e-08
-1.4465e-10
1.76171e-08
-1.41091e-10
1.76425e-08
-1.36332e-10
1.76674e-08
-1.33108e-10
1.76914e-08
-1.28525e-10
1.77149e-08
-1.25599e-10
1.77375e-08
-1.21147e-10
1.77596e-08
-1.18463e-10
1.77809e-08
-1.14107e-10
1.78017e-08
-1.11638e-10
1.78218e-08
-1.07398e-10
1.78414e-08
-1.05179e-10
1.78602e-08
-1.01133e-10
1.78787e-08
-9.92315e-11
1.78965e-08
-9.54693e-11
1.7914e-08
-9.39278e-11
1.79308e-08
-9.04852e-11
1.79474e-08
-8.92644e-11
1.79634e-08
-8.60817e-11
1.79792e-08
-8.50334e-11
1.79945e-08
-8.19404e-11
1.80095e-08
-8.08052e-11
1.8024e-08
-7.75276e-11
1.80381e-08
-7.59563e-11
1.80517e-08
-7.21542e-11
1.80648e-08
-6.97708e-11
1.80771e-08
-6.51285e-11
1.80889e-08
-6.16463e-11
1.80996e-08
-5.6005e-11
1.81096e-08
-5.13636e-11
1.81184e-08
-4.48441e-11
1.81262e-08
-3.9296e-11
1.81327e-08
-3.23347e-11
1.81382e-08
-2.64191e-11
1.81424e-08
-1.96779e-11
1.81455e-08
-1.40747e-11
1.81475e-08
-8.25253e-12
1.81487e-08
-3.57772e-12
1.81489e-08
7.95673e-13
1.81485e-08
4.16145e-12
1.81475e-08
6.86199e-12
1.8146e-08
8.8421e-12
1.81443e-08
9.97335e-12
1.81424e-08
1.07504e-11
1.81405e-08
1.06632e-11
1.81385e-08
1.05633e-11
1.81367e-08
9.72313e-12
1.8135e-08
9.09408e-12
1.81334e-08
7.94893e-12
1.8132e-08
7.0798e-12
1.81309e-08
5.96579e-12
1.81298e-08
5.06332e-12
1.8129e-08
4.16011e-12
1.81283e-08
3.36506e-12
1.81278e-08
2.70034e-12
1.81273e-08
2.11386e-12
1.8127e-08
1.60592e-12
1.81267e-08
1.30259e-12
1.81265e-08
8.23805e-13
1.81263e-08
8.45723e-13
1.81263e-08
2.84936e-13
1.81261e-08
6.28144e-13
1.81261e-08
-6.83944e-14
1.8126e-08
5.40862e-13
1.81261e-08
-2.78015e-13
1.8126e-08
5.01804e-13
1.8126e-08
-3.75841e-13
1.8126e-08
4.62334e-13
1.8126e-08
-3.90077e-13
1.8126e-08
4.03045e-13
1.8126e-08
-3.47946e-13
1.8126e-08
3.24779e-13
1.8126e-08
-2.75668e-13
1.8126e-08
2.39534e-13
1.8126e-08
-1.97145e-13
1.8126e-08
1.62942e-13
1.8126e-08
-1.31568e-13
1.8126e-08
1.07765e-13
1.8126e-08
-8.98683e-14
1.8126e-08
7.84117e-14
1.8126e-08
-7.18064e-14
1.8126e-08
6.86858e-14
1.8126e-08
-6.71041e-14
1.8126e-08
6.54696e-14
1.8126e-08
-6.24495e-14
1.8126e-08
5.75705e-14
1.8126e-08
-5.08598e-14
1.8126e-08
4.31995e-14
1.8126e-08
-3.5478e-14
1.8126e-08
2.8869e-14
1.8126e-08
-2.37643e-14
1.8126e-08
2.03826e-14
1.8126e-08
-1.8032e-14
1.8126e-08
1.61999e-14
1.8126e-08
-1.4015e-14
1.8126e-08
1.13961e-14
1.8126e-08
-8.4077e-15
1.8126e-08
5.89936e-15
1.8126e-08
-4.30893e-15
1.8126e-08
4.37309e-15
1.8126e-08
-5.98466e-15
1.8126e-08
9.11199e-15
1.8126e-08
-1.3306e-14
1.8126e-08
1.86749e-14
1.8126e-08
-2.47871e-14
1.8126e-08
3.17623e-14
1.8126e-08
-3.88759e-14
1.8126e-08
4.53035e-14
1.8126e-08
-4.96221e-14
1.8126e-08
5.10016e-14
1.8126e-08
-4.8587e-14
1.8126e-08
4.28277e-14
1.8126e-08
-3.40434e-14
1.8126e-08
2.35545e-14
1.8126e-08
-1.22861e-14
1.8126e-08
1.86789e-15
1.8126e-08
6.60434e-15
1.8126e-08
-1.18215e-14
1.8126e-08
1.37547e-14
1.8126e-08
-1.29295e-14
1.8126e-08
1.17913e-14
1.8126e-08
-1.24198e-14
1.8126e-08
1.74028e-14
1.8126e-08
-2.71703e-14
1.8126e-08
4.10867e-14
1.8126e-08
-5.60929e-14
1.8126e-08
6.89415e-14
1.8126e-08
-7.62695e-14
1.8126e-08
7.71089e-14
1.8126e-08
-7.16658e-14
1.8126e-08
6.24433e-14
1.8126e-08
-5.18625e-14
1.8126e-08
4.34533e-14
1.8126e-08
-3.91264e-14
1.8126e-08
3.85455e-14
1.8126e-08
-3.61725e-14
1.8126e-08
2.62021e-14
1.8126e-08
-6.55229e-15
1.8126e-08
-1.89351e-14
1.8126e-08
4.37283e-14
1.8126e-08
-9.91787e-14
1.8126e-08
1.15921e-13
1.8126e-08
-6.90092e-13
1.81263e-08
-5.6892e-13
-1.12235e-11
1.31424e-08
-3.80814e-09
1.35191e-08
-2.28989e-09
1.37953e-08
-1.63288e-09
1.40144e-08
-1.33008e-09
1.41964e-08
-1.08416e-09
1.43573e-08
-9.69582e-10
1.45041e-08
-8.78002e-10
1.46396e-08
-8.13792e-10
1.47669e-08
-7.62738e-10
1.48869e-08
-7.19863e-10
1.5001e-08
-6.84598e-10
1.51099e-08
-6.53281e-10
1.52142e-08
-6.2638e-10
1.53142e-08
-6.01942e-10
1.54106e-08
-5.80145e-10
1.55033e-08
-5.60014e-10
1.55928e-08
-5.41536e-10
1.56792e-08
-5.24215e-10
1.57627e-08
-5.07985e-10
1.58434e-08
-4.92576e-10
1.59214e-08
-4.77933e-10
1.59968e-08
-4.6389e-10
1.60698e-08
-4.50424e-10
1.61404e-08
-4.37413e-10
1.62087e-08
-4.24871e-10
1.62748e-08
-4.12686e-10
1.63387e-08
-4.00913e-10
1.64007e-08
-3.89427e-10
1.64606e-08
-3.78329e-10
1.65186e-08
-3.6746e-10
1.65747e-08
-3.56979e-10
1.66291e-08
-3.46673e-10
1.66817e-08
-3.36771e-10
1.67327e-08
-3.26989e-10
1.67821e-08
-3.17641e-10
1.68298e-08
-3.08351e-10
1.68761e-08
-2.99538e-10
1.6921e-08
-2.90711e-10
1.69644e-08
-2.82419e-10
1.70065e-08
-2.74027e-10
1.70472e-08
-2.66243e-10
1.70867e-08
-2.58261e-10
1.7125e-08
-2.50971e-10
1.71621e-08
-2.4337e-10
1.7198e-08
-2.36562e-10
1.72328e-08
-2.29314e-10
1.72667e-08
-2.22975e-10
1.72994e-08
-2.16055e-10
1.73311e-08
-2.10175e-10
1.73619e-08
-2.0356e-10
1.73918e-08
-1.98124e-10
1.74207e-08
-1.91783e-10
1.74488e-08
-1.86769e-10
1.74759e-08
-1.80674e-10
1.75024e-08
-1.76066e-10
1.7528e-08
-1.70204e-10
1.75529e-08
-1.66002e-10
1.75769e-08
-1.60375e-10
1.76004e-08
-1.56572e-10
1.7623e-08
-1.51159e-10
1.76451e-08
-1.47709e-10
1.76664e-08
-1.42458e-10
1.76873e-08
-1.39295e-10
1.77073e-08
-1.34164e-10
1.77269e-08
-1.31254e-10
1.77458e-08
-1.26262e-10
1.77643e-08
-1.2364e-10
1.7782e-08
-1.18878e-10
1.77994e-08
-1.16625e-10
1.78161e-08
-1.12197e-10
1.78326e-08
-1.10363e-10
1.78484e-08
-1.06315e-10
1.7864e-08
-1.04859e-10
1.7879e-08
-1.01127e-10
1.78939e-08
-9.98811e-11
1.79082e-08
-9.62714e-11
1.79224e-08
-9.49383e-11
1.7936e-08
-9.1134e-11
1.79493e-08
-8.93084e-11
1.79621e-08
-8.49127e-11
1.79745e-08
-8.21534e-11
1.79861e-08
-7.67912e-11
1.79972e-08
-7.27548e-11
1.80074e-08
-6.62282e-11
1.80169e-08
-6.08293e-11
1.80253e-08
-5.32625e-11
1.80328e-08
-4.67801e-11
1.80391e-08
-3.86673e-11
1.80444e-08
-3.17198e-11
1.80486e-08
-2.38262e-11
1.80517e-08
-1.72059e-11
1.80538e-08
-1.03507e-11
1.8055e-08
-4.78613e-12
1.80554e-08
3.99742e-13
1.80551e-08
4.44708e-12
1.80543e-08
7.68482e-12
1.80531e-08
1.01069e-11
1.80515e-08
1.15017e-11
1.80498e-08
1.24972e-11
1.8048e-08
1.24491e-11
1.80462e-08
1.23921e-11
1.80444e-08
1.14414e-11
1.80428e-08
1.07389e-11
1.80413e-08
9.41107e-12
1.804e-08
8.4074e-12
1.80389e-08
7.09982e-12
1.80379e-08
6.04545e-12
1.80371e-08
4.97318e-12
1.80364e-08
4.04079e-12
1.80359e-08
3.24079e-12
1.80354e-08
2.55393e-12
1.80351e-08
1.93486e-12
1.80348e-08
1.58235e-12
1.80346e-08
9.98874e-13
1.80345e-08
1.02859e-12
1.80344e-08
3.54078e-13
1.80343e-08
7.58643e-13
1.80343e-08
-6.74487e-14
1.80342e-08
6.44853e-13
1.80342e-08
-3.16345e-13
1.80341e-08
5.90828e-13
1.80342e-08
-4.31928e-13
1.80341e-08
5.3924e-13
1.80341e-08
-4.48808e-13
1.80341e-08
4.66932e-13
1.80341e-08
-3.99857e-13
1.80341e-08
3.74407e-13
1.80341e-08
-3.16212e-13
1.80341e-08
2.75171e-13
1.80341e-08
-2.25838e-13
1.80341e-08
1.86914e-13
1.80341e-08
-1.50869e-13
1.80341e-08
1.23929e-13
1.80341e-08
-1.0362e-13
1.80341e-08
9.08031e-14
1.80341e-08
-8.3426e-14
1.80341e-08
7.99891e-14
1.80341e-08
-7.8189e-14
1.80341e-08
7.6242e-14
1.80341e-08
-7.26294e-14
1.80341e-08
6.68603e-14
1.80341e-08
-5.90018e-14
1.80341e-08
5.0102e-14
1.80341e-08
-4.11878e-14
1.80341e-08
3.36015e-14
1.80341e-08
-2.77666e-14
1.80341e-08
2.3906e-14
1.80341e-08
-2.11983e-14
1.80341e-08
1.9053e-14
1.80341e-08
-1.64774e-14
1.80341e-08
1.34013e-14
1.80341e-08
-9.9236e-15
1.80341e-08
7.04102e-15
1.80341e-08
-5.24797e-15
1.80341e-08
5.38504e-15
1.80341e-08
-7.3165e-15
1.80341e-08
1.09867e-14
1.80341e-08
-1.587e-14
1.80341e-08
2.20986e-14
1.80341e-08
-2.91509e-14
1.80341e-08
3.71487e-14
1.80341e-08
-4.52354e-14
1.80341e-08
5.24339e-14
1.80341e-08
-5.7109e-14
1.80341e-08
5.83375e-14
1.80341e-08
-5.51618e-14
1.80341e-08
4.81562e-14
1.80341e-08
-3.7716e-14
1.80341e-08
2.53868e-14
1.80341e-08
-1.22471e-14
1.80341e-08
1.74221e-16
1.80341e-08
9.58997e-15
1.80341e-08
-1.55789e-14
1.80341e-08
1.78345e-14
1.80341e-08
-1.70391e-14
1.80341e-08
1.60845e-14
1.80341e-08
-1.7364e-14
1.80341e-08
2.38057e-14
1.80341e-08
-3.5776e-14
1.80341e-08
5.2419e-14
1.80341e-08
-7.01277e-14
1.80341e-08
8.51887e-14
1.80341e-08
-9.38591e-14
1.80341e-08
9.51973e-14
1.80341e-08
-8.95735e-14
1.80341e-08
7.99439e-14
1.80341e-08
-6.91203e-14
1.80341e-08
6.12065e-14
1.80341e-08
-5.84246e-14
1.80341e-08
6.04317e-14
1.80341e-08
-6.09515e-14
1.80341e-08
5.36909e-14
1.80341e-08
-3.6953e-14
1.80341e-08
1.59981e-14
1.80341e-08
7.36828e-16
1.80341e-08
-4.94228e-14
1.80341e-08