/*--------------------------------*- C++ -*----------------------------------*\
| =========                 |                                                 |
| \\      /  F ield         | OpenFOAM: The Open Source CFD Toolbox           |
|  \\    /   O peration     | Version:  2412                                  |
|   \\  /    A nd           | Website:  www.openfoam.com                      |
|    \\/     M anipulation  |                                                 |
\*---------------------------------------------------------------------------*/
FoamFile
{
    version     2.0;
    format      ascii;
    arch        "LSB;label=32;scalar=64";
    class       volVectorField;
    location    "400";
    object      U;
}
// * * * * * * * * * * * * * * * * * * * * * * * * * * * * * * * * * * * * * //

dimensions      [0 1 -1 0 0 0 0];

internalField   nonuniform List<vector> 
8000
(
(0.0500314 -4.09747e-05 0)
(0.0544545 -2.79042e-05 0)
(0.0540827 -1.65e-05 0)
(0.0559578 -1.56381e-05 0)
(0.0562412 -1.15204e-05 0)
(0.0571863 -1.10241e-05 0)
(0.0576503 -9.59365e-06 0)
(0.0582915 -9.11166e-06 0)
(0.0587706 -8.41941e-06 0)
(0.059288 -8.01479e-06 0)
(0.0597412 -7.58527e-06 0)
(0.0601942 -7.26213e-06 0)
(0.0606157 -6.95428e-06 0)
(0.0610276 -6.69478e-06 0)
(0.0614203 -6.4546e-06 0)
(0.061802 -6.24051e-06 0)
(0.0621697 -6.04213e-06 0)
(0.0625271 -5.85949e-06 0)
(0.0628731 -5.68842e-06 0)
(0.0632098 -5.52743e-06 0)
(0.0635364 -5.37481e-06 0)
(0.0638547 -5.22887e-06 0)
(0.0641637 -5.08917e-06 0)
(0.0644653 -4.95398e-06 0)
(0.0647579 -4.82374e-06 0)
(0.065044 -4.69655e-06 0)
(0.0653211 -4.57369e-06 0)
(0.0655926 -4.45283e-06 0)
(0.0658549 -4.33612e-06 0)
(0.0661126 -4.22058e-06 0)
(0.0663608 -4.10936e-06 0)
(0.0666054 -3.99854e-06 0)
(0.0668399 -3.8925e-06 0)
(0.0670722 -3.78604e-06 0)
(0.0672934 -3.68505e-06 0)
(0.0675141 -3.5827e-06 0)
(0.0677225 -3.48675e-06 0)
(0.0679322 -3.38834e-06 0)
(0.0681281 -3.29745e-06 0)
(0.0683277 -3.2028e-06 0)
(0.0685114 -3.11702e-06 0)
(0.0687015 -3.02596e-06 0)
(0.0688734 -2.94534e-06 0)
(0.0690548 -2.85767e-06 0)
(0.0692152 -2.78221e-06 0)
(0.0693887 -2.6977e-06 0)
(0.0695377 -2.62743e-06 0)
(0.069704 -2.5459e-06 0)
(0.069842 -2.48082e-06 0)
(0.0700018 -2.40206e-06 0)
(0.0701289 -2.34208e-06 0)
(0.070283 -2.26581e-06 0)
(0.0703994 -2.21074e-06 0)
(0.0705486 -2.13671e-06 0)
(0.0706545 -2.08649e-06 0)
(0.0707993 -2.01471e-06 0)
(0.0708948 -1.9694e-06 0)
(0.071036 -1.89992e-06 0)
(0.0711214 -1.85935e-06 0)
(0.0712595 -1.79188e-06 0)
(0.0713351 -1.75539e-06 0)
(0.0714705 -1.68933e-06 0)
(0.0715365 -1.65614e-06 0)
(0.0716697 -1.59122e-06 0)
(0.0717261 -1.56112e-06 0)
(0.0718575 -1.49797e-06 0)
(0.0719047 -1.47163e-06 0)
(0.0720344 -1.41158e-06 0)
(0.0720729 -1.38993e-06 0)
(0.0722015 -1.33422e-06 0)
(0.0722319 -1.3175e-06 0)
(0.0723598 -1.26633e-06 0)
(0.0723829 -1.25346e-06 0)
(0.0725103 -1.20554e-06 0)
(0.0725267 -1.19382e-06 0)
(0.0726536 -1.14626e-06 0)
(0.0726635 -1.13145e-06 0)
(0.0727893 -1.08001e-06 0)
(0.0727927 -1.05685e-06 0)
(0.0729162 -9.96682e-07 0)
(0.0729123 -9.59985e-07 0)
(0.0730317 -8.87124e-07 0)
(0.0730191 -8.33621e-07 0)
(0.0731322 -7.46935e-07 0)
(0.0731096 -6.77108e-07 0)
(0.0732142 -5.7978e-07 0)
(0.0731804 -4.98692e-07 0)
(0.0732748 -3.98215e-07 0)
(0.0732297 -3.14569e-07 0)
(0.0733134 -2.2094e-07 0)
(0.0732578 -1.44576e-07 0)
(0.0733315 -6.7367e-08 0)
(0.0732673 -6.2927e-09 0)
(0.0733327 4.81232e-08 0)
(0.0732628 8.98547e-08 0)
(0.073322 1.19776e-07 0)
(0.0732495 1.42528e-07 0)
(0.0733047 1.50719e-07 0)
(0.0732322 1.58173e-07 0)
(0.0732853 1.50386e-07 0)
(0.0732148 1.47666e-07 0)
(0.0732669 1.30697e-07 0)
(0.0731996 1.22647e-07 0)
(0.0732515 1.02636e-07 0)
(0.0731878 9.28556e-08 0)
(0.0732395 7.41888e-08 0)
(0.0731793 6.49277e-08 0)
(0.0732309 4.98039e-08 0)
(0.0731739 4.24042e-08 0)
(0.073225 3.09736e-08 0)
(0.0731708 2.63956e-08 0)
(0.073221 1.73442e-08 0)
(0.0731694 1.64142e-08 0)
(0.0732183 7.81132e-09 0)
(0.0731691 1.11178e-08 0)
(0.0732162 1.27438e-09 0)
(0.0731696 8.88374e-09 0)
(0.0732145 -3.05051e-09 0)
(0.0731705 8.22331e-09 0)
(0.073213 -5.64141e-09 0)
(0.0731716 8.02893e-09 0)
(0.0732116 -6.82263e-09 0)
(0.0731729 7.65648e-09 0)
(0.0732103 -6.89126e-09 0)
(0.073174 6.86892e-09 0)
(0.0732092 -6.17057e-09 0)
(0.073175 5.71174e-09 0)
(0.0732083 -5.00285e-09 0)
(0.0731758 4.38494e-09 0)
(0.0732076 -3.72291e-09 0)
(0.0731764 3.14034e-09 0)
(0.073207 -2.61674e-09 0)
(0.0731769 2.19281e-09 0)
(0.0732066 -1.86764e-09 0)
(0.0731773 1.64163e-09 0)
(0.0732062 -1.50123e-09 0)
(0.0731776 1.42478e-09 0)
(0.0732059 -1.38535e-09 0)
(0.073178 1.35618e-09 0)
(0.0732056 -1.31423e-09 0)
(0.0731783 1.24809e-09 0)
(0.0732053 -1.15327e-09 0)
(0.0731786 1.03982e-09 0)
(0.073205 -9.19927e-10 0)
(0.0731788 8.12318e-10 0)
(0.0732048 -7.25529e-10 0)
(0.0731791 6.66036e-10 0)
(0.0732045 -6.26374e-10 0)
(0.0731793 5.99147e-10 0)
(0.0732043 -5.69958e-10 0)
(0.0731795 5.35061e-10 0)
(0.0732041 -4.92146e-10 0)
(0.0731797 4.51698e-10 0)
(0.0732039 -4.20705e-10 0)
(0.0731799 4.1149e-10 0)
(0.0732037 -4.23432e-10 0)
(0.0731801 4.58086e-10 0)
(0.0732035 -5.08761e-10 0)
(0.0731803 5.75469e-10 0)
(0.0732033 -6.53194e-10 0)
(0.0731805 7.45578e-10 0)
(0.0732031 -8.43859e-10 0)
(0.0731808 9.38998e-10 0)
(0.0732028 -1.011e-09 0)
(0.073181 1.04543e-09 0)
(0.0732026 -1.0268e-09 0)
(0.0731812 9.57078e-10 0)
(0.0732024 -8.37986e-10 0)
(0.0731814 6.87584e-10 0)
(0.0732022 -5.18225e-10 0)
(0.0731815 3.53284e-10 0)
(0.0732021 -2.10048e-10 0)
(0.0731816 1.11365e-10 0)
(0.073202 -6.36447e-11 0)
(0.0731817 6.69996e-11 0)
(0.0732019 -9.21159e-11 0)
(0.0731818 1.10345e-10 0)
(0.0732019 -7.92456e-11 0)
(0.0731819 -1.84863e-11 0)
(0.0732018 1.86225e-10 0)
(0.0731819 -3.89313e-10 0)
(0.0732018 5.81892e-10 0)
(0.0731819 -7.05418e-10 0)
(0.0732018 7.30248e-10 0)
(0.0731819 -6.4498e-10 0)
(0.0732017 4.77939e-10 0)
(0.073182 -2.62041e-10 0)
(0.0732017 5.00625e-11 0)
(0.0731821 1.23765e-10 0)
(0.0732016 -2.55217e-10 0)
(0.0731822 4.23967e-10 0)
(0.0732014 -7.46573e-10 0)
(0.0731823 1.32453e-09 0)
(0.0732012 -2.19938e-09 0)
(0.0731827 3.41385e-09 0)
(0.0732008 -5.76923e-09 0)
(0.0731834 9.23456e-09 0)
(0.0731998 -2.60892e-08 0)
(0.0731861 3.76809e-08 0)
(0.073196 -7.57612e-08 0)
(0.0500304 -0.000124014 0)
(0.0544557 -8.08707e-05 0)
(0.0540845 -5.1426e-05 0)
(0.0559597 -4.59659e-05 0)
(0.0562433 -3.51779e-05 0)
(0.0571884 -3.27958e-05 0)
(0.0576525 -2.89707e-05 0)
(0.0582938 -2.72586e-05 0)
(0.0587729 -2.53229e-05 0)
(0.0592903 -2.40267e-05 0)
(0.0597435 -2.27815e-05 0)
(0.0601965 -2.17854e-05 0)
(0.0606181 -2.0875e-05 0)
(0.06103 -2.00871e-05 0)
(0.0614226 -1.93699e-05 0)
(0.0618042 -1.87236e-05 0)
(0.0621717 -1.81284e-05 0)
(0.0625289 -1.75782e-05 0)
(0.0628745 -1.70637e-05 0)
(0.0632108 -1.65789e-05 0)
(0.0635368 -1.61193e-05 0)
(0.0638546 -1.56799e-05 0)
(0.0641628 -1.52589e-05 0)
(0.0644636 -1.4852e-05 0)
(0.0647553 -1.44594e-05 0)
(0.0650404 -1.40767e-05 0)
(0.0653163 -1.37063e-05 0)
(0.0655868 -1.3343e-05 0)
(0.0658478 -1.29912e-05 0)
(0.0661043 -1.26442e-05 0)
(0.0663509 -1.23089e-05 0)
(0.0665943 -1.19764e-05 0)
(0.0668272 -1.16567e-05 0)
(0.0670582 -1.13378e-05 0)
(0.0672777 -1.10331e-05 0)
(0.067497 -1.0727e-05 0)
(0.0677036 -1.04374e-05 0)
(0.067912 -1.01435e-05 0)
(0.0681061 -9.86899e-06 0)
(0.0683043 -9.58685e-06 0)
(0.0684862 -9.32745e-06 0)
(0.0686751 -9.05655e-06 0)
(0.0688451 -8.81236e-06 0)
(0.0690253 -8.55209e-06 0)
(0.0691837 -8.3231e-06 0)
(0.0693561 -8.0728e-06 0)
(0.0695032 -7.859e-06 0)
(0.0696684 -7.6181e-06 0)
(0.0698045 -7.41952e-06 0)
(0.0699633 -7.18741e-06 0)
(0.0700885 -7.00378e-06 0)
(0.0702418 -6.77956e-06 0)
(0.0703563 -6.61033e-06 0)
(0.0705047 -6.39323e-06 0)
(0.0706086 -6.23817e-06 0)
(0.0707528 -6.02809e-06 0)
(0.0708464 -5.88742e-06 0)
(0.070987 -5.68449e-06 0)
(0.0710706 -5.55785e-06 0)
(0.0712081 -5.36125e-06 0)
(0.0712819 -5.24683e-06 0)
(0.071417 -5.05473e-06 0)
(0.0714811 -4.95022e-06 0)
(0.071614 -4.76154e-06 0)
(0.0716687 -4.66623e-06 0)
(0.0717997 -4.48251e-06 0)
(0.0718453 -4.39823e-06 0)
(0.0719747 -4.22326e-06 0)
(0.0720117 -4.1529e-06 0)
(0.0721399 -3.99037e-06 0)
(0.0721688 -3.93506e-06 0)
(0.0722963 -3.78588e-06 0)
(0.0723179 -3.74287e-06 0)
(0.0724448 -3.60357e-06 0)
(0.0724599 -3.56535e-06 0)
(0.0725863 -3.42771e-06 0)
(0.0725952 -3.38218e-06 0)
(0.0727205 -3.23386e-06 0)
(0.0727231 -3.16555e-06 0)
(0.0728463 -2.99207e-06 0)
(0.072842 -2.88538e-06 0)
(0.0729614 -2.67444e-06 0)
(0.072949 -2.51883e-06 0)
(0.0730624 -2.26603e-06 0)
(0.0730405 -2.06172e-06 0)
(0.0731457 -1.77527e-06 0)
(0.0731132 -1.53605e-06 0)
(0.0732086 -1.23721e-06 0)
(0.073165 -9.8813e-07 0)
(0.0732498 -7.06287e-07 0)
(0.0731959 -4.76602e-07 0)
(0.0732705 -2.40727e-07 0)
(0.0732081 -5.50073e-08 0)
(0.073274 1.14798e-07 0)
(0.0732058 2.43281e-07 0)
(0.0732651 3.40623e-07 0)
(0.073194 4.1173e-07 0)
(0.073249 4.43757e-07 0)
(0.0731775 4.67596e-07 0)
(0.07323 4.50861e-07 0)
(0.0731604 4.42355e-07 0)
(0.0732118 3.9704e-07 0)
(0.0731452 3.70753e-07 0)
(0.0731961 3.15419e-07 0)
(0.073133 2.82529e-07 0)
(0.0731838 2.3061e-07 0)
(0.0731243 1.98412e-07 0)
(0.0731749 1.56745e-07 0)
(0.0731186 1.29809e-07 0)
(0.0731687 9.89854e-08 0)
(0.0731152 8.06125e-08 0)
(0.0731645 5.67566e-08 0)
(0.0731136 4.96563e-08 0)
(0.0731616 2.70221e-08 0)
(0.0731132 3.30079e-08 0)
(0.0731594 6.58429e-09 0)
(0.0731137 2.57852e-08 0)
(0.0731576 -6.92423e-09 0)
(0.0731146 2.34758e-08 0)
(0.0731561 -1.50173e-08 0)
(0.0731157 2.27153e-08 0)
(0.0731547 -1.87606e-08 0)
(0.0731168 2.15397e-08 0)
(0.0731534 -1.91183e-08 0)
(0.0731179 1.92108e-08 0)
(0.0731524 -1.71034e-08 0)
(0.0731189 1.58404e-08 0)
(0.0731515 -1.37608e-08 0)
(0.0731196 1.20067e-08 0)
(0.0731508 -1.00966e-08 0)
(0.0731202 8.44384e-09 0)
(0.0731503 -6.95761e-09 0)
(0.0731207 5.77153e-09 0)
(0.0731499 -4.87101e-09 0)
(0.0731211 4.25817e-09 0)
(0.0731495 -3.88766e-09 0)
(0.0731214 3.69403e-09 0)
(0.0731492 -3.59703e-09 0)
(0.0731217 3.51897e-09 0)
(0.0731489 -3.39493e-09 0)
(0.073122 3.19525e-09 0)
(0.0731486 -2.91122e-09 0)
(0.0731223 2.57585e-09 0)
(0.0731483 -2.22653e-09 0)
(0.0731226 1.91786e-09 0)
(0.0731481 -1.6727e-09 0)
(0.0731228 1.50685e-09 0)
(0.0731478 -1.3955e-09 0)
(0.073123 1.31621e-09 0)
(0.0731476 -1.22758e-09 0)
(0.0731233 1.12104e-09 0)
(0.0731474 -9.92959e-10 0)
(0.0731235 8.76723e-10 0)
(0.0731472 -7.92913e-10 0)
(0.0731237 7.76845e-10 0)
(0.073147 -8.25417e-10 0)
(0.0731239 9.41439e-10 0)
(0.0731468 -1.1052e-09 0)
(0.0731241 1.31822e-09 0)
(0.0731466 -1.56518e-09 0)
(0.0731243 1.85525e-09 0)
(0.0731464 -2.1604e-09 0)
(0.0731245 2.45009e-09 0)
(0.0731461 -2.66376e-09 0)
(0.0731248 2.76017e-09 0)
(0.0731459 -2.69578e-09 0)
(0.073125 2.48039e-09 0)
(0.0731457 -2.12215e-09 0)
(0.0731251 1.67604e-09 0)
(0.0731455 -1.18045e-09 0)
(0.0731253 7.05378e-10 0)
(0.0731454 -3.01791e-10 0)
(0.0731254 3.49284e-11 0)
(0.0731453 8.15168e-11 0)
(0.0731255 -5.45559e-11 0)
(0.0731453 -2.17669e-11 0)
(0.0731255 5.98935e-11 0)
(0.0731452 6.31419e-11 0)
(0.0731256 -3.89465e-10 0)
(0.0731451 9.16919e-10 0)
(0.0731257 -1.53157e-09 0)
(0.0731451 2.09273e-09 0)
(0.0731257 -2.43285e-09 0)
(0.0731451 2.47661e-09 0)
(0.0731257 -2.20369e-09 0)
(0.0731451 1.70698e-09 0)
(0.0731257 -1.08762e-09 0)
(0.073145 5.00529e-10 0)
(0.0731258 -3.81123e-11 0)
(0.073145 -3.04126e-10 0)
(0.0731259 7.76914e-10 0)
(0.0731448 -1.71274e-09 0)
(0.073126 3.36629e-09 0)
(0.0731447 -5.80511e-09 0)
(0.0731263 9.10669e-09 0)
(0.0731443 -1.54484e-08 0)
(0.0731268 2.40122e-08 0)
(0.0731437 -6.64906e-08 0)
(0.0731283 6.71705e-08 0)
(0.0731449 -2.88996e-07 0)
(0.0500298 -0.000208789 0)
(0.0544602 -0.00013039 0)
(0.0540889 -8.85872e-05 0)
(0.0559638 -7.51317e-05 0)
(0.0562477 -5.95478e-05 0)
(0.0571927 -5.42257e-05 0)
(0.057657 -4.85642e-05 0)
(0.0582982 -4.53082e-05 0)
(0.0587774 -4.2298e-05 0)
(0.0592949 -4.00134e-05 0)
(0.0597482 -3.80047e-05 0)
(0.0602013 -3.63041e-05 0)
(0.0606229 -3.48063e-05 0)
(0.0610347 -3.34781e-05 0)
(0.0614272 -3.22865e-05 0)
(0.0618085 -3.12016e-05 0)
(0.0621756 -3.02074e-05 0)
(0.0625322 -2.92842e-05 0)
(0.0628771 -2.8422e-05 0)
(0.0632125 -2.76082e-05 0)
(0.0635374 -2.68365e-05 0)
(0.0638539 -2.60986e-05 0)
(0.0641606 -2.5391e-05 0)
(0.0644598 -2.47076e-05 0)
(0.0647495 -2.40476e-05 0)
(0.0650326 -2.34054e-05 0)
(0.0653063 -2.27828e-05 0)
(0.0655744 -2.21737e-05 0)
(0.0658328 -2.15826e-05 0)
(0.0660867 -2.10017e-05 0)
(0.0663306 -2.04388e-05 0)
(0.0665712 -1.98833e-05 0)
(0.066801 -1.93468e-05 0)
(0.0670292 -1.88148e-05 0)
(0.0672455 -1.83039e-05 0)
(0.0674619 -1.77943e-05 0)
(0.0676652 -1.73087e-05 0)
(0.0678706 -1.68206e-05 0)
(0.0680614 -1.63602e-05 0)
(0.0682566 -1.58926e-05 0)
(0.0684351 -1.54574e-05 0)
(0.0686211 -1.50094e-05 0)
(0.0687877 -1.45994e-05 0)
(0.0689651 -1.41701e-05 0)
(0.0691202 -1.37852e-05 0)
(0.0692898 -1.33734e-05 0)
(0.0694335 -1.30133e-05 0)
(0.0695962 -1.2618e-05 0)
(0.0697289 -1.22829e-05 0)
(0.0698854 -1.1903e-05 0)
(0.0700073 -1.15923e-05 0)
(0.0701583 -1.12264e-05 0)
(0.0702695 -1.09392e-05 0)
(0.0704158 -1.05857e-05 0)
(0.0705166 -1.03216e-05 0)
(0.0706588 -9.98036e-06 0)
(0.0707493 -9.73968e-06 0)
(0.0708881 -9.41078e-06 0)
(0.0709686 -9.19311e-06 0)
(0.0711045 -8.87521e-06 0)
(0.0711753 -8.67778e-06 0)
(0.0713088 -8.36778e-06 0)
(0.0713701 -8.18683e-06 0)
(0.0715015 -7.88264e-06 0)
(0.0715536 -7.71688e-06 0)
(0.0716832 -7.42056e-06 0)
(0.0717263 -7.27285e-06 0)
(0.0718544 -6.99033e-06 0)
(0.0718889 -6.86555e-06 0)
(0.0720158 -6.60293e-06 0)
(0.0720425 -6.50341e-06 0)
(0.0721686 -6.26247e-06 0)
(0.0721881 -6.18436e-06 0)
(0.0723137 -5.95985e-06 0)
(0.0723267 -5.89151e-06 0)
(0.0724518 -5.67043e-06 0)
(0.0724588 -5.59255e-06 0)
(0.0725829 -5.35489e-06 0)
(0.0725839 -5.24237e-06 0)
(0.0727061 -4.96432e-06 0)
(0.0727007 -4.79123e-06 0)
(0.0728193 -4.45186e-06 0)
(0.0728063 -4.19993e-06 0)
(0.0729192 -3.79073e-06 0)
(0.0728974 -3.45873e-06 0)
(0.0730025 -2.99153e-06 0)
(0.0729706 -2.60045e-06 0)
(0.0730663 -2.10884e-06 0)
(0.0730239 -1.69877e-06 0)
(0.0731091 -1.23057e-06 0)
(0.0730567 -8.49462e-07 0)
(0.0731318 -4.52902e-07 0)
(0.073071 -1.4209e-07 0)
(0.0731373 1.48297e-07 0)
(0.0730706 3.65407e-07 0)
(0.0731301 5.37312e-07 0)
(0.0730604 6.58861e-07 0)
(0.0731152 7.22539e-07 0)
(0.073045 7.63976e-07 0)
(0.073097 7.4582e-07 0)
(0.0730285 7.31212e-07 0)
(0.0730791 6.64283e-07 0)
(0.0730135 6.17764e-07 0)
(0.0730635 5.32941e-07 0)
(0.0730013 4.73517e-07 0)
(0.0730512 3.93418e-07 0)
(0.0729924 3.33894e-07 0)
(0.073042 2.70203e-07 0)
(0.0729865 2.18871e-07 0)
(0.0730356 1.72825e-07 0)
(0.072983 1.357e-07 0)
(0.0730312 1.0103e-07 0)
(0.0729813 8.29073e-08 0)
(0.0730282 5.01912e-08 0)
(0.0729809 5.41581e-08 0)
(0.0730259 1.51612e-08 0)
(0.0729813 4.13825e-08 0)
(0.0730241 -8.00445e-09 0)
(0.0729821 3.70594e-08 0)
(0.0730225 -2.1922e-08 0)
(0.0729832 3.55561e-08 0)
(0.0730212 -2.84768e-08 0)
(0.0729843 3.35609e-08 0)
(0.0730199 -2.93571e-08 0)
(0.0729854 2.97956e-08 0)
(0.0730189 -2.62897e-08 0)
(0.0729863 2.43964e-08 0)
(0.0730181 -2.10246e-08 0)
(0.072987 1.82802e-08 0)
(0.0730174 -1.5226e-08 0)
(0.0729876 1.26285e-08 0)
(0.0730169 -1.02817e-08 0)
(0.072988 8.43365e-09 0)
(0.0730165 -7.03818e-09 0)
(0.0729884 6.10606e-09 0)
(0.0730162 -5.55431e-09 0)
(0.0729887 5.27707e-09 0)
(0.0730159 -5.14203e-09 0)
(0.072989 5.02537e-09 0)
(0.0730155 -4.82477e-09 0)
(0.0729894 4.49643e-09 0)
(0.0730153 -4.03131e-09 0)
(0.0729896 3.48655e-09 0)
(0.073015 -2.92428e-09 0)
(0.0729899 2.43225e-09 0)
(0.0730147 -2.04501e-09 0)
(0.0729901 1.78467e-09 0)
(0.0730145 -1.60797e-09 0)
(0.0729903 1.47833e-09 0)
(0.0730143 -1.32981e-09 0)
(0.0729906 1.15124e-09 0)
(0.0730141 -9.40611e-10 0)
(0.0729908 7.54919e-10 0)
(0.0730139 -6.26849e-10 0)
(0.072991 6.13286e-10 0)
(0.0730137 -7.08334e-10 0)
(0.0729912 9.13764e-10 0)
(0.0730135 -1.19824e-09 0)
(0.0729914 1.56682e-09 0)
(0.0730132 -1.99219e-09 0)
(0.0729916 2.4875e-09 0)
(0.073013 -3.00483e-09 0)
(0.0729918 3.48922e-09 0)
(0.0730128 -3.8413e-09 0)
(0.0729921 3.99558e-09 0)
(0.0730126 -3.8825e-09 0)
(0.0729923 3.52402e-09 0)
(0.0730124 -2.93589e-09 0)
(0.0729924 2.20909e-09 0)
(0.0730122 -1.40898e-09 0)
(0.0729926 6.49853e-10 0)
(0.0730121 -1.50059e-11 0)
(0.0729927 -3.9271e-10 0)
(0.073012 5.57366e-10 0)
(0.0729927 -4.98363e-10 0)
(0.073012 3.78161e-10 0)
(0.0729928 -3.41458e-10 0)
(0.0730119 5.85803e-10 0)
(0.0729929 -1.16828e-09 0)
(0.0730118 2.07101e-09 0)
(0.0729929 -3.09591e-09 0)
(0.0730118 4.00918e-09 0)
(0.0729929 -4.5466e-09 0)
(0.0730118 4.6009e-09 0)
(0.0729929 -4.15486e-09 0)
(0.0730118 3.36975e-09 0)
(0.0729929 -2.41393e-09 0)
(0.0730118 1.53884e-09 0)
(0.072993 -8.87073e-10 0)
(0.0730117 4.39738e-10 0)
(0.0729931 2.17564e-10 0)
(0.0730117 -1.59225e-09 0)
(0.0729931 4.019e-09 0)
(0.0730115 -7.49164e-09 0)
(0.0729933 1.19481e-08 0)
(0.0730114 -2.03926e-08 0)
(0.0729935 2.97519e-08 0)
(0.0730113 -8.45167e-08 0)
(0.0729941 3.10717e-08 0)
(0.073014 -6.05543e-07 0)
(0.0500294 -0.00029403 0)
(0.054468 -0.00018003 0)
(0.0540958 -0.000125615 0)
(0.0559703 -0.00010429 0)
(0.0562543 -8.38746e-05 0)
(0.0571993 -7.56512e-05 0)
(0.0576636 -6.81431e-05 0)
(0.058305 -6.33544e-05 0)
(0.0587842 -5.92671e-05 0)
(0.0593019 -5.59979e-05 0)
(0.0597552 -5.32245e-05 0)
(0.0602084 -5.08196e-05 0)
(0.0606299 -4.87324e-05 0)
(0.0610416 -4.68613e-05 0)
(0.0614339 -4.51913e-05 0)
(0.0618147 -4.36625e-05 0)
(0.0621812 -4.22634e-05 0)
(0.0625369 -4.09603e-05 0)
(0.0628805 -3.97431e-05 0)
(0.0632144 -3.85923e-05 0)
(0.0635376 -3.75006e-05 0)
(0.063852 -3.64558e-05 0)
(0.0641562 -3.54539e-05 0)
(0.0644528 -3.44861e-05 0)
(0.0647395 -3.35515e-05 0)
(0.0650195 -3.26425e-05 0)
(0.0652897 -3.17616e-05 0)
(0.0655541 -3.09005e-05 0)
(0.0658086 -3.00652e-05 0)
(0.0660586 -2.92453e-05 0)
(0.0662982 -2.8451e-05 0)
(0.0665346 -2.76684e-05 0)
(0.0667599 -2.69126e-05 0)
(0.0669836 -2.61646e-05 0)
(0.0671952 -2.54461e-05 0)
(0.067407 -2.4731e-05 0)
(0.0676055 -2.4049e-05 0)
(0.0678064 -2.33653e-05 0)
(0.0679922 -2.27195e-05 0)
(0.0681829 -2.20658e-05 0)
(0.0683565 -2.1456e-05 0)
(0.0685379 -2.08309e-05 0)
(0.0686996 -2.02569e-05 0)
(0.0688727 -1.96588e-05 0)
(0.0690228 -1.91202e-05 0)
(0.0691882 -1.85475e-05 0)
(0.0693272 -1.80439e-05 0)
(0.0694858 -1.7495e-05 0)
(0.0696137 -1.70262e-05 0)
(0.0697664 -1.64996e-05 0)
(0.0698836 -1.60649e-05 0)
(0.070031 -1.55584e-05 0)
(0.0701377 -1.51565e-05 0)
(0.0702805 -1.4668e-05 0)
(0.0703769 -1.4298e-05 0)
(0.0705158 -1.38271e-05 0)
(0.0706021 -1.34895e-05 0)
(0.0707378 -1.30361e-05 0)
(0.0708142 -1.27303e-05 0)
(0.0709472 -1.22929e-05 0)
(0.0710141 -1.20152e-05 0)
(0.0711448 -1.15893e-05 0)
(0.0712024 -1.13346e-05 0)
(0.0713312 -1.09172e-05 0)
(0.0713797 -1.06834e-05 0)
(0.0715069 -1.02767e-05 0)
(0.0715465 -1.00674e-05 0)
(0.0716724 -9.67952e-06 0)
(0.0717036 -9.50146e-06 0)
(0.0718284 -9.14074e-06 0)
(0.0718519 -8.99756e-06 0)
(0.0719758 -8.66692e-06 0)
(0.0719924 -8.554e-06 0)
(0.0721158 -8.24684e-06 0)
(0.0721261 -8.14895e-06 0)
(0.0722491 -7.848e-06 0)
(0.0722536 -7.73925e-06 0)
(0.0723757 -7.41743e-06 0)
(0.0723745 -7.26364e-06 0)
(0.0724948 -6.88817e-06 0)
(0.0724876 -6.6534e-06 0)
(0.0726046 -6.19474e-06 0)
(0.0725904 -5.85274e-06 0)
(0.0727022 -5.29762e-06 0)
(0.0726797 -4.84487e-06 0)
(0.0727841 -4.20757e-06 0)
(0.0727523 -3.67097e-06 0)
(0.0728475 -2.99593e-06 0)
(0.0728058 -2.42928e-06 0)
(0.072891 -1.78152e-06 0)
(0.0728397 -1.25063e-06 0)
(0.0729149 -6.97051e-07 0)
(0.0728556 -2.59936e-07 0)
(0.0729221 1.50327e-07 0)
(0.072857 4.59497e-07 0)
(0.0729165 7.07423e-07 0)
(0.0728483 8.84003e-07 0)
(0.0729029 9.819e-07 0)
(0.0728341 1.04559e-06 0)
(0.0728857 1.02873e-06 0)
(0.0728184 1.01197e-06 0)
(0.0728684 9.25626e-07 0)
(0.0728039 8.61795e-07 0)
(0.0728532 7.48819e-07 0)
(0.072792 6.64838e-07 0)
(0.0728409 5.56947e-07 0)
(0.0727831 4.71454e-07 0)
(0.0728317 3.85274e-07 0)
(0.0727772 3.10634e-07 0)
(0.0728252 2.48257e-07 0)
(0.0727737 1.93418e-07 0)
(0.0728207 1.46487e-07 0)
(0.0727719 1.18348e-07 0)
(0.0728176 7.41184e-08 0)
(0.0727714 7.68907e-08 0)
(0.0728152 2.42351e-08 0)
(0.0727718 5.79221e-08 0)
(0.0728134 -8.65403e-09 0)
(0.0727726 5.1003e-08 0)
(0.0728118 -2.83329e-08 0)
(0.0727737 4.8296e-08 0)
(0.0728104 -3.75983e-08 0)
(0.0727747 4.5175e-08 0)
(0.0728093 -3.89368e-08 0)
(0.0727757 3.98261e-08 0)
(0.0728083 -3.48274e-08 0)
(0.0727766 3.23892e-08 0)
(0.0728075 -2.77289e-08 0)
(0.0727773 2.40834e-08 0)
(0.0728069 -1.99415e-08 0)
(0.0727778 1.64896e-08 0)
(0.0728064 -1.33544e-08 0)
(0.0727783 1.0921e-08 0)
(0.072806 -9.08934e-09 0)
(0.0727786 7.8863e-09 0)
(0.0728056 -7.1836e-09 0)
(0.0727789 6.83947e-09 0)
(0.0728053 -6.67068e-09 0)
(0.0727793 6.51306e-09 0)
(0.072805 -6.2315e-09 0)
(0.0727796 5.77254e-09 0)
(0.0728047 -5.13e-09 0)
(0.0727798 4.38568e-09 0)
(0.0728044 -3.62517e-09 0)
(0.0727801 2.96598e-09 0)
(0.0728042 -2.45143e-09 0)
(0.0727803 2.10721e-09 0)
(0.072804 -1.87089e-09 0)
(0.0727806 1.6928e-09 0)
(0.0728037 -1.48512e-09 0)
(0.0727808 1.23605e-09 0)
(0.0728035 -9.46969e-10 0)
(0.072781 6.98098e-10 0)
(0.0728033 -5.32687e-10 0)
(0.0727812 5.26763e-10 0)
(0.0728031 -6.70905e-10 0)
(0.0727814 9.64446e-10 0)
(0.0728029 -1.36504e-09 0)
(0.0727816 1.882e-09 0)
(0.0728027 -2.4753e-09 0)
(0.0727818 3.16032e-09 0)
(0.0728025 -3.86908e-09 0)
(0.0727821 4.52198e-09 0)
(0.0728022 -4.98355e-09 0)
(0.0727823 5.16803e-09 0)
(0.072802 -4.98364e-09 0)
(0.0727825 4.46778e-09 0)
(0.0728018 -3.64561e-09 0)
(0.0727827 2.64307e-09 0)
(0.0728017 -1.55186e-09 0)
(0.0727828 5.27747e-10 0)
(0.0728016 3.17244e-10 0)
(0.0727829 -8.48112e-10 0)
(0.0728015 1.05225e-09 0)
(0.0727829 -9.6588e-10 0)
(0.0728014 8.20245e-10 0)
(0.072783 -8.13623e-10 0)
(0.0728014 1.20928e-09 0)
(0.0727831 -2.06967e-09 0)
(0.0728013 3.35289e-09 0)
(0.0727831 -4.77578e-09 0)
(0.0728013 6.01793e-09 0)
(0.0727831 -6.73319e-09 0)
(0.0728013 6.79673e-09 0)
(0.0727831 -6.20475e-09 0)
(0.0728013 5.1888e-09 0)
(0.0727831 -3.98166e-09 0)
(0.0728013 2.92501e-09 0)
(0.0727831 -2.20537e-09 0)
(0.0728013 1.79005e-09 0)
(0.0727832 -1.12045e-09 0)
(0.0728013 -4.38601e-10 0)
(0.0727832 3.22952e-09 0)
(0.0728012 -7.07993e-09 0)
(0.0727832 1.16315e-08 0)
(0.0728012 -2.03679e-08 0)
(0.0727832 2.74149e-08 0)
(0.0728015 -9.02529e-08 0)
(0.0727832 -1.73602e-08 0)
(0.0728044 -9.60987e-07 0)
(0.0500289 -0.000379349 0)
(0.0544789 -0.000230009 0)
(0.0541053 -0.000162478 0)
(0.0559793 -0.000133516 0)
(0.0562632 -0.000108152 0)
(0.0572081 -9.70998e-05 0)
(0.0576726 -8.77103e-05 0)
(0.058314 -8.14104e-05 0)
(0.0587934 -7.62354e-05 0)
(0.0593112 -7.19876e-05 0)
(0.0597646 -6.84451e-05 0)
(0.0602178 -6.53357e-05 0)
(0.0606393 -6.26543e-05 0)
(0.0610507 -6.02355e-05 0)
(0.0614425 -5.80799e-05 0)
(0.0618226 -5.60994e-05 0)
(0.0621879 -5.42858e-05 0)
(0.0625422 -5.25925e-05 0)
(0.062884 -5.10092e-05 0)
(0.0632157 -4.95099e-05 0)
(0.0635362 -4.80866e-05 0)
(0.0638476 -4.67234e-05 0)
(0.0641484 -4.54159e-05 0)
(0.0644412 -4.41527e-05 0)
(0.0647237 -4.29335e-05 0)
(0.0649993 -4.1748e-05 0)
(0.0652646 -4.06002e-05 0)
(0.0655241 -3.94789e-05 0)
(0.0657732 -3.83926e-05 0)
(0.0660177 -3.73271e-05 0)
(0.0662515 -3.62964e-05 0)
(0.0664821 -3.52816e-05 0)
(0.0667013 -3.43032e-05 0)
(0.066919 -3.33356e-05 0)
(0.0671242 -3.24075e-05 0)
(0.0673299 -3.14845e-05 0)
(0.067522 -3.06056e-05 0)
(0.0677167 -2.97251e-05 0)
(0.0678959 -2.88945e-05 0)
(0.0680805 -2.80543e-05 0)
(0.0682476 -2.72715e-05 0)
(0.068423 -2.64695e-05 0)
(0.0685783 -2.57339e-05 0)
(0.0687454 -2.4968e-05 0)
(0.0688892 -2.42787e-05 0)
(0.0690489 -2.35463e-05 0)
(0.0691816 -2.29026e-05 0)
(0.0693348 -2.22017e-05 0)
(0.0694566 -2.16032e-05 0)
(0.069604 -2.09316e-05 0)
(0.0697153 -2.03771e-05 0)
(0.0698576 -1.9732e-05 0)
(0.0699586 -1.92195e-05 0)
(0.0700967 -1.85983e-05 0)
(0.0701875 -1.81266e-05 0)
(0.0703219 -1.75282e-05 0)
(0.0704028 -1.70977e-05 0)
(0.0705342 -1.65224e-05 0)
(0.0706055 -1.61324e-05 0)
(0.0707345 -1.55779e-05 0)
(0.0707964 -1.52238e-05 0)
(0.0709233 -1.46848e-05 0)
(0.0709761 -1.43599e-05 0)
(0.0711014 -1.38322e-05 0)
(0.0711453 -1.35336e-05 0)
(0.0712692 -1.30198e-05 0)
(0.0713045 -1.27517e-05 0)
(0.0714271 -1.22614e-05 0)
(0.0714543 -1.20322e-05 0)
(0.071576 -1.15762e-05 0)
(0.0715956 -1.13908e-05 0)
(0.0717166 -1.09733e-05 0)
(0.0717295 -1.08266e-05 0)
(0.0718501 -1.04399e-05 0)
(0.0718569 -1.03134e-05 0)
(0.071977 -9.9365e-06 0)
(0.0719784 -9.79853e-06 0)
(0.0720977 -9.39779e-06 0)
(0.0720938 -9.20562e-06 0)
(0.0722114 -8.73981e-06 0)
(0.0722019 -8.44795e-06 0)
(0.0723165 -7.87913e-06 0)
(0.0723005 -7.45336e-06 0)
(0.0724103 -6.76314e-06 0)
(0.0723867 -6.1971e-06 0)
(0.0724896 -5.40126e-06 0)
(0.0724573 -4.72668e-06 0)
(0.0725516 -3.8792e-06 0)
(0.0725101 -3.16228e-06 0)
(0.0725947 -2.34402e-06 0)
(0.0725443 -1.6674e-06 0)
(0.0726193 -9.63009e-07 0)
(0.0725612 -4.00895e-07 0)
(0.0726276 1.26083e-07 0)
(0.072564 5.28504e-07 0)
(0.0726234 8.51901e-07 0)
(0.0725568 1.08643e-06 0)
(0.0726112 1.21974e-06 0)
(0.072544 1.30938e-06 0)
(0.0725952 1.29579e-06 0)
(0.0725293 1.28053e-06 0)
(0.0725787 1.17672e-06 0)
(0.0725155 1.09873e-06 0)
(0.072564 9.58962e-07 0)
(0.072504 8.52974e-07 0)
(0.072552 7.1781e-07 0)
(0.0724954 6.08426e-07 0)
(0.072543 4.99414e-07 0)
(0.0724896 4.03261e-07 0)
(0.0725365 3.23536e-07 0)
(0.0724861 2.52593e-07 0)
(0.072532 1.9204e-07 0)
(0.0724844 1.55262e-07 0)
(0.0725287 9.81975e-08 0)
(0.0724839 1.00775e-07 0)
(0.0725264 3.35204e-08 0)
(0.0724842 7.51403e-08 0)
(0.0725245 -8.97362e-09 0)
(0.072485 6.51439e-08 0)
(0.0725229 -3.4265e-08 0)
(0.072486 6.08415e-08 0)
(0.0725216 -4.61183e-08 0)
(0.0724871 5.63429e-08 0)
(0.0725204 -4.7863e-08 0)
(0.072488 4.93076e-08 0)
(0.0725195 -4.27465e-08 0)
(0.0724889 3.98579e-08 0)
(0.0725187 -3.39257e-08 0)
(0.0724895 2.94751e-08 0)
(0.0725181 -2.43049e-08 0)
(0.07249 2.0089e-08 0)
(0.0725176 -1.62325e-08 0)
(0.0724904 1.32839e-08 0)
(0.0725173 -1.10656e-08 0)
(0.0724908 9.63102e-09 0)
(0.0725169 -8.79932e-09 0)
(0.0724911 8.39941e-09 0)
(0.0725166 -8.19837e-09 0)
(0.0724915 7.99775e-09 0)
(0.0725163 -7.63344e-09 0)
(0.0724918 7.04596e-09 0)
(0.072516 -6.23362e-09 0)
(0.072492 5.30229e-09 0)
(0.0725157 -4.35913e-09 0)
(0.0724923 3.5482e-09 0)
(0.0725155 -2.91921e-09 0)
(0.0724925 2.4997e-09 0)
(0.0725153 -2.20844e-09 0)
(0.0724928 1.98399e-09 0)
(0.072515 -1.71905e-09 0)
(0.072493 1.40253e-09 0)
(0.0725148 -1.04008e-09 0)
(0.0724932 7.33911e-10 0)
(0.0725146 -5.36401e-10 0)
(0.0724934 5.40541e-10 0)
(0.0725144 -7.32966e-10 0)
(0.0724936 1.10983e-09 0)
(0.0725142 -1.61843e-09 0)
(0.0724938 2.27229e-09 0)
(0.072514 -3.01841e-09 0)
(0.0724941 3.87322e-09 0)
(0.0725137 -4.74915e-09 0)
(0.0724943 5.54293e-09 0)
(0.0725135 -6.08646e-09 0)
(0.0724945 6.27724e-09 0)
(0.0725133 -6.0048e-09 0)
(0.0724947 5.32359e-09 0)
(0.0725131 -4.26901e-09 0)
(0.0724948 3.00018e-09 0)
(0.072513 -1.63355e-09 0)
(0.072495 3.62878e-10 0)
(0.0725129 6.74905e-10 0)
(0.072495 -1.31764e-09 0)
(0.0725128 1.56001e-09 0)
(0.0724951 -1.45748e-09 0)
(0.0725127 1.30775e-09 0)
(0.0724952 -1.35784e-09 0)
(0.0725127 1.92796e-09 0)
(0.0724953 -3.07874e-09 0)
(0.0725126 4.73966e-09 0)
(0.0724953 -6.54579e-09 0)
(0.0725126 8.0993e-09 0)
(0.0724953 -8.9863e-09 0)
(0.0725126 9.07546e-09 0)
(0.0724952 -8.38237e-09 0)
(0.0725127 7.20699e-09 0)
(0.0724952 -5.84206e-09 0)
(0.0725127 4.71355e-09 0)
(0.0724952 -4.04919e-09 0)
(0.0725127 3.80814e-09 0)
(0.0724952 -3.3105e-09 0)
(0.0725127 1.83263e-09 0)
(0.0724952 9.27826e-10 0)
(0.0725127 -4.58561e-09 0)
(0.0724951 8.43328e-09 0)
(0.0725129 -1.63741e-08 0)
(0.0724949 2.0017e-08 0)
(0.0725134 -9.14187e-08 0)
(0.0724948 -6.01913e-08 0)
(0.0725159 -1.32269e-06 0)
(0.0500285 -0.00046486 0)
(0.0544928 -0.000280157 0)
(0.0541175 -0.000199307 0)
(0.0559907 -0.000162742 0)
(0.0562745 -0.000132422 0)
(0.0572193 -0.000118552 0)
(0.0576838 -0.00010728 0)
(0.0583254 -9.94721e-05 0)
(0.058805 -9.32086e-05 0)
(0.0593229 -8.79823e-05 0)
(0.0597764 -8.36681e-05 0)
(0.0602296 -7.98502e-05 0)
(0.0606508 -7.65683e-05 0)
(0.0610618 -7.35938e-05 0)
(0.0614527 -7.09425e-05 0)
(0.0618316 -6.84984e-05 0)
(0.0621953 -6.62572e-05 0)
(0.0625474 -6.41593e-05 0)
(0.0628865 -6.21952e-05 0)
(0.0632151 -6.03321e-05 0)
(0.0635319 -5.85622e-05 0)
(0.0638391 -5.68656e-05 0)
(0.0641353 -5.52384e-05 0)
(0.064423 -5.36661e-05 0)
(0.0646999 -5.21497e-05 0)
(0.0649695 -5.06759e-05 0)
(0.0652286 -4.92508e-05 0)
(0.0654815 -4.78596e-05 0)
(0.0657237 -4.6514e-05 0)
(0.0659611 -4.51954e-05 0)
(0.0661875 -4.39223e-05 0)
(0.0664106 -4.26698e-05 0)
(0.0666221 -4.14647e-05 0)
(0.066832 -4.02739e-05 0)
(0.0670294 -3.91341e-05 0)
(0.0672273 -3.80012e-05 0)
(0.0674112 -3.69249e-05 0)
(0.0675981 -3.58467e-05 0)
(0.0677693 -3.48323e-05 0)
(0.0679462 -3.38059e-05 0)
(0.0681052 -3.2852e-05 0)
(0.068273 -3.18744e-05 0)
(0.0684203 -3.098e-05 0)
(0.0685801 -3.00481e-05 0)
(0.0687161 -2.92117e-05 0)
(0.0688686 -2.83221e-05 0)
(0.0689937 -2.75424e-05 0)
(0.06914 -2.66924e-05 0)
(0.0692544 -2.59684e-05 0)
(0.0693952 -2.51551e-05 0)
(0.0694993 -2.44852e-05 0)
(0.0696353 -2.37051e-05 0)
(0.0697294 -2.30867e-05 0)
(0.0698614 -2.23362e-05 0)
(0.0699456 -2.17675e-05 0)
(0.0700743 -2.10455e-05 0)
(0.0701488 -2.05267e-05 0)
(0.0702748 -1.98331e-05 0)
(0.0703399 -1.93633e-05 0)
(0.0704638 -1.86956e-05 0)
(0.0705198 -1.82693e-05 0)
(0.0706419 -1.76212e-05 0)
(0.070689 -1.72301e-05 0)
(0.0708098 -1.65964e-05 0)
(0.0708483 -1.62367e-05 0)
(0.0709678 -1.56201e-05 0)
(0.0709981 -1.52964e-05 0)
(0.0711166 -1.47081e-05 0)
(0.071139 -1.44303e-05 0)
(0.0712568 -1.38831e-05 0)
(0.0712719 -1.36574e-05 0)
(0.0713891 -1.31569e-05 0)
(0.0713977 -1.29778e-05 0)
(0.0715146 -1.25155e-05 0)
(0.0715174 -1.23619e-05 0)
(0.0716339 -1.19135e-05 0)
(0.0716316 -1.1748e-05 0)
(0.0717474 -1.12741e-05 0)
(0.0717401 -1.10464e-05 0)
(0.0718545 -1.04976e-05 0)
(0.071842 -1.01532e-05 0)
(0.0719536 -9.48362e-06 0)
(0.0719352 -8.98055e-06 0)
(0.0720424 -8.16649e-06 0)
(0.0720171 -7.49518e-06 0)
(0.0721179 -6.55319e-06 0)
(0.0720848 -5.74928e-06 0)
(0.0721774 -4.74163e-06 0)
(0.0721358 -3.88247e-06 0)
(0.0722194 -2.90448e-06 0)
(0.0721695 -2.08833e-06 0)
(0.0722439 -1.24129e-06 0)
(0.0721869 -5.57814e-07 0)
(0.0722529 8.08539e-08 0)
(0.0721908 5.75533e-07 0)
(0.07225 9.72344e-07 0)
(0.072185 1.26596e-06 0)
(0.0722391 1.43491e-06 0)