/*--------------------------------*- C++ -*----------------------------------*\
| =========                 |                                                 |
| \\      /  F ield         | OpenFOAM: The Open Source CFD Toolbox           |
|  \\    /   O peration     | Version:  2412                                  |
|   \\  /    A nd           | Website:  www.openfoam.com                      |
|    \\/     M anipulation  |                                                 |
\*---------------------------------------------------------------------------*/
FoamFile
{
    version     2.0;
    format      ascii;
    arch        "LSB;label=32;scalar=64";
    class       volScalarField;
    location    "200";
    object      p;
}
// * * * * * * * * * * * * * * * * * * * * * * * * * * * * * * * * * * * * * //

dimensions      [0 2 -2 0 0 0 0];

internalField   nonuniform List<scalar> 
8000
(
0.00330974
0.0030751
0.00309692
0.00299292
0.00297773
0.0029241
0.00289785
0.00286086
0.00283313
0.00280283
0.00277615
0.00274926
0.00272408
0.00269932
0.00267555
0.00265231
0.00262976
0.00260772
0.00258621
0.00256514
0.00254451
0.00252428
0.00250441
0.00248489
0.00246569
0.00244679
0.00242819
0.00240984
0.00239174
0.00237387
0.00235621
0.00233876
0.00232152
0.00230451
0.00228774
0.00227124
0.00225503
0.00223911
0.00222352
0.00220825
0.0021933
0.00217867
0.00216434
0.0021503
0.00213651
0.00212292
0.0021095
0.0020962
0.00208295
0.00206974
0.00205651
0.00204324
0.00202992
0.00201654
0.00200309
0.00198958
0.00197602
0.00196241
0.00194875
0.00193507
0.00192136
0.00190764
0.00189389
0.00188014
0.00186638
0.00185262
0.00183886
0.00182509
0.00181132
0.00179755
0.00178377
0.00177
0.00175623
0.00174246
0.00172869
0.00171491
0.00170114
0.00168737
0.0016736
0.00165982
0.00164605
0.00163228
0.00161851
0.00160474
0.00159096
0.00157719
0.00156342
0.00154965
0.00153587
0.0015221
0.00150833
0.00149456
0.00148078
0.00146702
0.00145323
0.00143948
0.00142569
0.00141194
0.00139814
0.0013844
0.00137059
0.00135686
0.00134303
0.00132933
0.00131547
0.0013018
0.00128791
0.00127427
0.00126035
0.00124674
0.00123279
0.00121922
0.00120522
0.0011917
0.00117765
0.00116418
0.00115008
0.00113666
0.00112252
0.00110913
0.00109496
0.0010816
0.0010674
0.00105406
0.00103985
0.00102652
0.00101231
0.000998966
0.000984781
0.000971404
0.000957258
0.000943834
0.000929742
0.000916257
0.000902233
0.000888676
0.000874727
0.000861092
0.000847222
0.000833508
0.000819715
0.000805928
0.000792203
0.000778354
0.000764685
0.000750788
0.000737157
0.00072323
0.000709622
0.000695678
0.000682084
0.000668127
0.000654548
0.000640571
0.000627019
0.000613006
0.000599498
0.000585435
0.000571981
0.000557864
0.00054446
0.000530301
0.000516929
0.000502749
0.000489385
0.00047521
0.000461828
0.000447685
0.000434257
0.000420171
0.00040668
0.000392659
0.000379106
0.000365138
0.000351544
0.000337606
0.000323991
0.000310068
0.00029644
0.000282531
0.000268887
0.000254994
0.000241338
0.000227453
0.00021379
0.000199911
0.000186242
0.00017237
0.000158695
0.000144827
0.000131148
0.000117285
0.000103601
8.97441e-05
7.6051e-05
6.22057e-05
4.84811e-05
3.46591e-05
2.06551e-05
6.91831e-06
0.00330984
0.00307509
0.00309688
0.00299292
0.00297772
0.0029241
0.00289785
0.00286086
0.00283313
0.00280283
0.00277615
0.00274926
0.00272408
0.00269932
0.00267555
0.00265231
0.00262976
0.00260772
0.0025862
0.00256514
0.00254451
0.00252428
0.00250441
0.00248489
0.00246569
0.00244679
0.00242819
0.00240984
0.00239174
0.00237387
0.00235621
0.00233876
0.00232152
0.00230451
0.00228774
0.00227124
0.00225502
0.00223911
0.00222352
0.00220824
0.0021933
0.00217867
0.00216434
0.0021503
0.00213651
0.00212292
0.0021095
0.0020962
0.00208295
0.00206974
0.00205651
0.00204324
0.00202992
0.00201654
0.00200309
0.00198958
0.00197602
0.00196241
0.00194875
0.00193507
0.00192136
0.00190764
0.00189389
0.00188014
0.00186638
0.00185262
0.00183886
0.00182509
0.00181132
0.00179755
0.00178377
0.00177
0.00175623
0.00174246
0.00172869
0.00171491
0.00170114
0.00168737
0.0016736
0.00165982
0.00164605
0.00163228
0.00161851
0.00160474
0.00159096
0.00157719
0.00156342
0.00154965
0.00153587
0.0015221
0.00150833
0.00149456
0.00148078
0.00146702
0.00145323
0.00143948
0.00142569
0.00141194
0.00139814
0.0013844
0.00137059
0.00135686
0.00134303
0.00132933
0.00131547
0.0013018
0.00128791
0.00127427
0.00126035
0.00124674
0.00123279
0.00121922
0.00120522
0.0011917
0.00117765
0.00116418
0.00115008
0.00113666
0.00112252
0.00110913
0.00109496
0.0010816
0.0010674
0.00105406
0.00103985
0.00102652
0.00101231
0.000998966
0.000984781
0.000971404
0.000957258
0.000943834
0.000929742
0.000916257
0.000902233
0.000888676
0.000874727
0.000861092
0.000847222
0.000833508
0.000819715
0.000805928
0.000792203
0.000778354
0.000764685
0.000750788
0.000737157
0.00072323
0.000709622
0.000695678
0.000682084
0.000668127
0.000654548
0.000640571
0.000627019
0.000613006
0.000599498
0.000585435
0.000571981
0.000557864
0.00054446
0.000530301
0.000516929
0.000502749
0.000489385
0.00047521
0.000461828
0.000447686
0.000434257
0.000420171
0.00040668
0.000392659
0.000379106
0.000365138
0.000351544
0.000337606
0.000323991
0.000310068
0.00029644
0.000282531
0.000268887
0.000254994
0.000241338
0.000227453
0.00021379
0.000199911
0.000186242
0.00017237
0.000158695
0.000144827
0.000131148
0.000117285
0.000103601
8.97441e-05
7.6051e-05
6.22057e-05
4.84812e-05
3.46593e-05
2.06542e-05
6.91733e-06
0.00331005
0.003075
0.00309683
0.0029929
0.0029777
0.00292409
0.00289784
0.00286085
0.00283312
0.00280283
0.00277615
0.00274926
0.00272408
0.00269931
0.00267555
0.00265231
0.00262976
0.00260771
0.0025862
0.00256514
0.00254451
0.00252427
0.00250441
0.00248488
0.00246569
0.00244679
0.00242818
0.00240984
0.00239174
0.00237387
0.00235621
0.00233876
0.00232152
0.0023045
0.00228774
0.00227124
0.00225502
0.00223911
0.00222352
0.00220824
0.00219329
0.00217866
0.00216434
0.0021503
0.00213651
0.00212292
0.0021095
0.0020962
0.00208295
0.00206974
0.00205651
0.00204324
0.00202992
0.00201654
0.00200309
0.00198958
0.00197602
0.00196241
0.00194875
0.00193507
0.00192136
0.00190764
0.00189389
0.00188014
0.00186638
0.00185262
0.00183886
0.00182509
0.00181132
0.00179755
0.00178377
0.00177
0.00175623
0.00174246
0.00172869
0.00171491
0.00170114
0.00168737
0.0016736
0.00165982
0.00164605
0.00163228
0.00161851
0.00160474
0.00159096
0.00157719
0.00156342
0.00154965
0.00153587
0.0015221
0.00150833
0.00149456
0.00148078
0.00146702
0.00145323
0.00143948
0.00142569
0.00141194
0.00139814
0.0013844
0.00137059
0.00135686
0.00134303
0.00132933
0.00131547
0.0013018
0.00128791
0.00127427
0.00126035
0.00124674
0.00123279
0.00121922
0.00120522
0.0011917
0.00117765
0.00116418
0.00115008
0.00113666
0.00112252
0.00110913
0.00109496
0.0010816
0.0010674
0.00105406
0.00103985
0.00102652
0.00101231
0.000998966
0.000984781
0.000971404
0.000957258
0.000943834
0.000929742
0.000916257
0.000902233
0.000888676
0.000874727
0.000861092
0.000847222
0.000833508
0.000819715
0.000805928
0.000792203
0.000778354
0.000764685
0.000750788
0.000737157
0.00072323
0.000709622
0.000695678
0.000682084
0.000668127
0.000654548
0.000640571
0.000627019
0.000613006
0.000599498
0.000585435
0.000571981
0.000557864
0.00054446
0.000530301
0.000516929
0.000502749
0.000489385
0.00047521
0.000461828
0.000447685
0.000434257
0.000420171
0.00040668
0.000392659
0.000379106
0.000365138
0.000351544
0.000337606
0.000323991
0.000310068
0.00029644
0.000282531
0.000268887
0.000254994
0.000241338
0.000227453
0.00021379
0.000199911
0.000186242
0.00017237
0.000158695
0.000144827
0.000131148
0.000117285
0.000103601
8.97441e-05
7.6051e-05
6.22057e-05
4.84813e-05
3.46594e-05
2.06555e-05
6.91877e-06
0.00331036
0.00307486
0.00309677
0.00299286
0.00297767
0.00292407
0.00289783
0.00286085
0.00283312
0.00280282
0.00277614
0.00274925
0.00272407
0.00269931
0.00267554
0.0026523
0.00262976
0.00260771
0.0025862
0.00256514
0.00254451
0.00252427
0.00250441
0.00248488
0.00246568
0.00244679
0.00242818
0.00240984
0.00239174
0.00237387
0.00235621
0.00233875
0.00232152
0.0023045
0.00228774
0.00227124
0.00225502
0.00223911
0.00222351
0.00220824
0.00219329
0.00217866
0.00216434
0.0021503
0.0021365
0.00212292
0.0021095
0.00209619
0.00208295
0.00206974
0.00205651
0.00204324
0.00202992
0.00201654
0.00200309
0.00198958
0.00197602
0.00196241
0.00194876
0.00193507
0.00192136
0.00190764
0.00189389
0.00188014
0.00186638
0.00185262
0.00183886
0.00182509
0.00181132
0.00179755
0.00178377
0.00177
0.00175623
0.00174246
0.00172869
0.00171491
0.00170114
0.00168737
0.0016736
0.00165982
0.00164605
0.00163228
0.00161851
0.00160474
0.00159096
0.00157719
0.00156342
0.00154965
0.00153587
0.0015221
0.00150833
0.00149456
0.00148078
0.00146702
0.00145323
0.00143948
0.00142569
0.00141194
0.00139814
0.0013844
0.00137059
0.00135686
0.00134303
0.00132933
0.00131547
0.0013018
0.00128791
0.00127427
0.00126035
0.00124674
0.00123279
0.00121922
0.00120522
0.0011917
0.00117765
0.00116418
0.00115008
0.00113666
0.00112252
0.00110913
0.00109496
0.0010816
0.0010674
0.00105406
0.00103985
0.00102652
0.00101231
0.000998966
0.000984781
0.000971404
0.000957258
0.000943834
0.000929742
0.000916257
0.000902233
0.000888676
0.000874727
0.000861092
0.000847222
0.000833508
0.000819715
0.000805928
0.000792203
0.000778354
0.000764685
0.000750788
0.000737157
0.00072323
0.000709622
0.000695678
0.000682084
0.000668127
0.000654547
0.000640571
0.000627019
0.000613006
0.000599498
0.000585435
0.000571981
0.000557864
0.00054446
0.000530301
0.000516929
0.000502749
0.000489385
0.00047521
0.000461828
0.000447685
0.000434257
0.000420171
0.00040668
0.000392659
0.000379106
0.000365139
0.000351544
0.000337606
0.000323991
0.000310068
0.00029644
0.000282531
0.000268887
0.000254994
0.000241338
0.000227453
0.00021379
0.000199911
0.000186242
0.00017237
0.000158695
0.000144827
0.000131148
0.000117285
0.000103601
8.97441e-05
7.6051e-05
6.22057e-05
4.84816e-05
3.46597e-05
2.06592e-05
6.92249e-06
0.00331078
0.00307468
0.00309669
0.00299281
0.00297764
0.00292405
0.00289781
0.00286083
0.00283311
0.00280282
0.00277614
0.00274925
0.00272407
0.00269931
0.00267554
0.0026523
0.00262975
0.00260771
0.0025862
0.00256513
0.00254451
0.00252427
0.0025044
0.00248488
0.00246568
0.00244679
0.00242818
0.00240984
0.00239174
0.00237387
0.0023562
0.00233875
0.00232151
0.0023045
0.00228773
0.00227123
0.00225502
0.00223911
0.00222351
0.00220824
0.00219329
0.00217866
0.00216434
0.00215029
0.0021365
0.00212292
0.0021095
0.00209619
0.00208295
0.00206974
0.00205651
0.00204324
0.00202992
0.00201654
0.00200309
0.00198958
0.00197602
0.00196241
0.00194876
0.00193507
0.00192136
0.00190764
0.00189389
0.00188014
0.00186638
0.00185262
0.00183886
0.00182509
0.00181132
0.00179755
0.00178377
0.00177
0.00175623
0.00174246
0.00172869
0.00171491
0.00170114
0.00168737
0.0016736
0.00165982
0.00164605
0.00163228
0.00161851
0.00160474
0.00159096
0.00157719
0.00156342
0.00154965
0.00153587
0.0015221
0.00150833
0.00149456
0.00148078
0.00146702
0.00145323
0.00143948
0.00142569
0.00141194
0.00139814
0.0013844
0.00137059
0.00135686
0.00134303
0.00132933
0.00131547
0.0013018
0.00128791
0.00127427
0.00126035
0.00124674
0.00123279
0.00121922
0.00120522
0.0011917
0.00117765
0.00116418
0.00115008
0.00113666
0.00112252
0.00110913
0.00109496
0.0010816
0.0010674
0.00105406
0.00103985
0.00102652
0.00101231
0.000998966
0.000984781
0.000971404
0.000957258
0.000943834
0.000929742
0.000916257
0.000902233
0.000888676
0.000874727
0.000861092
0.000847222
0.000833508
0.000819715
0.000805928
0.000792203
0.000778354
0.000764685
0.000750787
0.000737157
0.00072323
0.000709622
0.000695678
0.000682084
0.000668127
0.000654547
0.000640571
0.000627019
0.000613006
0.000599498
0.000585435
0.000571981
0.000557864
0.00054446
0.000530301
0.000516929
0.000502749
0.000489385
0.00047521
0.000461828
0.000447685
0.000434257
0.000420171
0.00040668
0.000392659
0.000379106
0.000365139
0.000351544
0.000337606
0.000323991
0.000310068
0.00029644
0.000282531
0.000268887
0.000254994
0.000241338
0.000227453
0.00021379
0.000199911
0.000186242
0.00017237
0.000158695
0.000144827
0.000131148
0.000117285
0.000103601
8.97441e-05
7.6051e-05
6.22056e-05
4.8482e-05
3.466e-05
2.06648e-05
6.9282e-06
0.00331131
0.00307445
0.00309658
0.00299275
0.0029776
0.00292403
0.0028978
0.00286082
0.0028331
0.00280281
0.00277613
0.00274924
0.00272406
0.0026993
0.00267553
0.0026523
0.00262975
0.0026077
0.00258619
0.00256513
0.0025445
0.00252427
0.0025044
0.00248488
0.00246568
0.00244679
0.00242818
0.00240984
0.00239174
0.00237386
0.0023562
0.00233875
0.00232151
0.0023045
0.00228773
0.00227123
0.00225502
0.0022391
0.00222351
0.00220823
0.00219329
0.00217866
0.00216433
0.00215029
0.0021365
0.00212292
0.0021095
0.00209619
0.00208295
0.00206974
0.00205651
0.00204324
0.00202992
0.00201654
0.00200309
0.00198958
0.00197602
0.00196241
0.00194876
0.00193507
0.00192136
0.00190764
0.00189389
0.00188014
0.00186638
0.00185262
0.00183886
0.00182509
0.00181132
0.00179755
0.00178377
0.00177
0.00175623
0.00174246
0.00172869
0.00171491
0.00170114
0.00168737
0.0016736
0.00165982
0.00164605
0.00163228
0.00161851
0.00160474
0.00159096
0.00157719
0.00156342
0.00154965
0.00153587
0.0015221
0.00150833
0.00149456
0.00148078
0.00146702
0.00145323
0.00143948
0.00142569
0.00141194
0.00139814
0.0013844
0.00137059
0.00135686
0.00134303
0.00132933
0.00131547
0.0013018
0.00128791
0.00127427
0.00126035
0.00124674
0.00123279
0.00121922
0.00120522
0.0011917
0.00117765
0.00116418
0.00115008
0.00113666
0.00112252
0.00110913
0.00109496
0.0010816
0.0010674
0.00105406
0.00103985
0.00102652
0.00101231
0.000998966
0.000984781
0.000971404
0.000957258
0.000943834
0.000929742
0.000916257
0.000902233
0.000888676
0.000874727
0.000861092
0.000847222
0.000833508
0.000819715
0.000805928
0.000792204
0.000778354
0.000764685
0.000750787
0.000737157
0.00072323
0.000709622
0.000695678
0.000682084
0.000668127
0.000654547
0.000640571
0.000627019
0.000613006
0.000599498
0.000585435
0.000571981
0.000557864
0.00054446
0.000530301
0.000516929
0.000502749
0.000489385
0.00047521
0.000461828
0.000447685
0.000434257
0.000420171
0.00040668
0.000392659
0.000379106
0.000365139
0.000351544
0.000337606
0.000323991
0.000310068
0.00029644
0.000282531
0.000268887
0.000254994
0.000241338
0.000227453
0.00021379
0.000199911
0.000186242
0.00017237
0.000158695
0.000144827
0.000131148
0.000117285
0.000103601
8.97441e-05
7.60511e-05
6.22056e-05
4.84824e-05
3.46604e-05
2.06723e-05
6.93576e-06
0.00331194
0.00307418
0.00309646
0.00299268
0.00297755
0.002924
0.00289777
0.0028608
0.00283308
0.00280279
0.00277612
0.00274923
0.00272405
0.00269929
0.00267553
0.00265229
0.00262974
0.0026077
0.00258619
0.00256513
0.0025445
0.00252426
0.0025044
0.00248487
0.00246568
0.00244678
0.00242818
0.00240983
0.00239174
0.00237386
0.0023562
0.00233875
0.00232151
0.0023045
0.00228773
0.00227123
0.00225501
0.0022391
0.0022235
0.00220823
0.00219328
0.00217865
0.00216433
0.00215029
0.0021365
0.00212292
0.0021095
0.00209619
0.00208295
0.00206974
0.00205651
0.00204324
0.00202992
0.00201654
0.00200309
0.00198959
0.00197602
0.00196241
0.00194876
0.00193507
0.00192136
0.00190764
0.00189389
0.00188014
0.00186638
0.00185262
0.00183886
0.00182509
0.00181132
0.00179755
0.00178377
0.00177
0.00175623
0.00174246
0.00172869
0.00171491
0.00170114
0.00168737
0.0016736
0.00165982
0.00164605
0.00163228
0.00161851
0.00160474
0.00159096
0.00157719
0.00156342
0.00154965
0.00153587
0.0015221
0.00150833
0.00149456
0.00148078
0.00146702
0.00145323
0.00143948
0.00142569
0.00141194
0.00139814
0.0013844
0.00137059
0.00135686
0.00134303
0.00132933
0.00131547
0.0013018
0.00128791
0.00127427
0.00126035
0.00124674
0.00123279
0.00121922
0.00120522
0.0011917
0.00117765
0.00116418
0.00115008
0.00113666
0.00112252
0.00110913
0.00109496
0.0010816
0.0010674
0.00105406
0.00103985
0.00102652
0.00101231
0.000998966
0.000984781
0.000971404
0.000957258
0.000943834
0.000929742
0.000916257
0.000902233
0.000888676
0.000874727
0.000861092
0.000847222
0.000833508
0.000819715
0.000805928
0.000792204
0.000778354
0.000764685
0.000750787
0.000737157
0.00072323
0.000709622
0.000695678
0.000682084
0.000668127
0.000654547
0.000640571
0.000627019
0.000613007
0.000599498
0.000585435
0.000571981
0.000557864
0.00054446
0.0005303
0.000516929
0.000502749
0.000489385
0.00047521
0.000461828
0.000447685
0.000434257
0.000420171
0.00040668
0.000392659
0.000379106
0.000365139
0.000351544
0.000337606
0.000323991
0.000310068
0.00029644
0.000282531
0.000268887
0.000254994
0.000241338
0.000227453
0.00021379
0.000199911
0.000186242
0.00017237
0.000158695
0.000144827
0.000131148
0.000117285
0.000103601
8.9744e-05
7.60511e-05
6.22056e-05
4.84829e-05
3.46609e-05
2.06815e-05
6.94509e-06
0.00331267
0.00307386
0.00309631
0.00299259
0.00297749
0.00292397
0.00289775
0.00286078
0.00283307
0.00280278
0.00277611
0.00274922
0.00272405
0.00269928
0.00267552
0.00265228
0.00262974
0.00260769
0.00258618
0.00256512
0.00254449
0.00252426
0.00250439
0.00248487
0.00246567
0.00244678
0.00242817
0.00240983
0.00239173
0.00237386
0.0023562
0.00233875
0.00232151
0.00230449
0.00228773
0.00227122
0.00225501
0.0022391
0.0022235
0.00220823
0.00219328
0.00217865
0.00216433
0.00215029
0.00213649
0.00212291
0.0021095
0.00209619
0.00208295
0.00206974
0.00205651
0.00204324
0.00202993
0.00201654
0.0020031
0.00198959
0.00197602
0.00196241
0.00194876
0.00193507
0.00192136
0.00190764
0.00189389
0.00188014
0.00186638
0.00185262
0.00183886
0.00182509
0.00181132
0.00179755
0.00178377
0.00177
0.00175623
0.00174246
0.00172869
0.00171491
0.00170114
0.00168737
0.0016736
0.00165982
0.00164605
0.00163228
0.00161851
0.00160474
0.00159096
0.00157719
0.00156342
0.00154965
0.00153587
0.0015221
0.00150833
0.00149456
0.00148078
0.00146702
0.00145323
0.00143948
0.00142569
0.00141194
0.00139814
0.0013844
0.00137059
0.00135686
0.00134303
0.00132933
0.00131547
0.0013018
0.00128791
0.00127427
0.00126035
0.00124674
0.00123279
0.00121922
0.00120522
0.0011917
0.00117765
0.00116418
0.00115008
0.00113666
0.00112252
0.00110913
0.00109496
0.0010816
0.0010674
0.00105406
0.00103985
0.00102652
0.00101231
0.000998966
0.000984781
0.000971404
0.000957258
0.000943834
0.000929742
0.000916257
0.000902233
0.000888676
0.000874727
0.000861092
0.000847222
0.000833508
0.000819715
0.000805928
0.000792204
0.000778353
0.000764685
0.000750787
0.000737157
0.00072323
0.000709622
0.000695678
0.000682084
0.000668127
0.000654547
0.000640571
0.000627018
0.000613007
0.000599498
0.000585435
0.000571981
0.000557864
0.00054446
0.0005303
0.000516929
0.000502748
0.000489385
0.00047521
0.000461828
0.000447685
0.000434257
0.000420171
0.00040668
0.000392659
0.000379106
0.000365139
0.000351544
0.000337606
0.000323991
0.000310068
0.00029644
0.000282531
0.000268887
0.000254994
0.000241338
0.000227453
0.00021379
0.000199911
0.000186242
0.00017237
0.000158695
0.000144827
0.000131148
0.000117285
0.000103601
8.9744e-05
7.60512e-05
6.22055e-05
4.84835e-05
3.46615e-05
2.06923e-05
6.95604e-06
0.00331351
0.0030735
0.00309615
0.0029925
0.00297743
0.00292393
0.00289772
0.00286076
0.00283305
0.00280276
0.00277609
0.00274921
0.00272403
0.00269927
0.00267551
0.00265227
0.00262973
0.00260769
0.00258618
0.00256511
0.00254449
0.00252425
0.00250439
0.00248487
0.00246567
0.00244678
0.00242817
0.00240983
0.00239173
0.00237386
0.0023562
0.00233874
0.0023215
0.00230449
0.00228772
0.00227122
0.002255
0.00223909
0.0022235
0.00220822
0.00219328
0.00217865
0.00216432
0.00215028
0.00213649
0.00212291
0.00210949
0.00209619
0.00208295
0.00206974
0.00205651
0.00204325
0.00202993
0.00201654
0.0020031
0.00198959
0.00197602
0.00196241
0.00194876
0.00193507
0.00192136
0.00190764
0.00189389
0.00188014
0.00186638
0.00185262
0.00183886
0.00182509
0.00181132
0.00179755
0.00178377
0.00177
0.00175623
0.00174246
0.00172869
0.00171491
0.00170114
0.00168737
0.0016736
0.00165982
0.00164605
0.00163228
0.00161851
0.00160474
0.00159096
0.00157719
0.00156342
0.00154965
0.00153587
0.0015221
0.00150833
0.00149456
0.00148078
0.00146702
0.00145323
0.00143948
0.00142569
0.00141194
0.00139814
0.0013844
0.00137059
0.00135686
0.00134303
0.00132933
0.00131547
0.0013018
0.00128791
0.00127427
0.00126035
0.00124674
0.00123279
0.00121922
0.00120522
0.0011917
0.00117765
0.00116418
0.00115008
0.00113666
0.00112252
0.00110913
0.00109496
0.0010816
0.0010674
0.00105406
0.00103985
0.00102652
0.00101231
0.000998966
0.000984781
0.000971404
0.000957258
0.000943834
0.000929742
0.000916257
0.000902233
0.000888676
0.000874727
0.000861092
0.000847222
0.000833508
0.000819715
0.000805928
0.000792204
0.000778353
0.000764685
0.000750787
0.000737157
0.00072323
0.000709622
0.000695678
0.000682084
0.000668127
0.000654547
0.000640571
0.000627018
0.000613007
0.000599498
0.000585435
0.000571981
0.000557864
0.00054446
0.0005303
0.000516929
0.000502748
0.000489385
0.00047521
0.000461828
0.000447685
0.000434257
0.000420171
0.00040668
0.000392659
0.000379106
0.000365139
0.000351544
0.000337606
0.000323991
0.000310068
0.00029644
0.000282531
0.000268887
0.000254994
0.000241338
0.000227453
0.00021379
0.000199911
0.000186242
0.00017237
0.000158695
0.000144827
0.000131148
0.000117285
0.000103601
8.9744e-05
7.60512e-05
6.22055e-05
4.84842e-05
3.46621e-05
2.07047e-05
6.96848e-06
0.00331446
0.00307308
0.00309596
0.00299239
0.00297736
0.00292389
0.00289768
0.00286074
0.00283303
0.00280275
0.00277608
0.0027492
0.00272402
0.00269926
0.0026755
0.00265227
0.00262972
0.00260768
0.00258617
0.00256511
0.00254448
0.00252425
0.00250438
0.00248486
0.00246566
0.00244677
0.00242817
0.00240982
0.00239173
0.00237385
0.00235619
0.00233874
0.0023215
0.00230449
0.00228772
0.00227122
0.002255
0.00223909
0.00222349
0.00220822
0.00219327
0.00217864
0.00216432
0.00215028
0.00213649
0.00212291
0.00210949
0.00209619
0.00208295
0.00206974
0.00205651
0.00204325
0.00202993
0.00201654
0.0020031
0.00198959
0.00197602
0.00196241
0.00194876
0.00193507
0.00192136
0.00190764
0.00189389
0.00188014
0.00186638
0.00185262
0.00183886
0.00182509
0.00181132
0.00179755
0.00178377
0.00177
0.00175623
0.00174246
0.00172869
0.00171491
0.00170114
0.00168737
0.0016736
0.00165982
0.00164605
0.00163228
0.00161851
0.00160474
0.00159096
0.00157719
0.00156342
0.00154965
0.00153587
0.0015221
0.00150833
0.00149456
0.00148078
0.00146702
0.00145323
0.00143948
0.00142569
0.00141194
0.00139814
0.0013844
0.00137059
0.00135686
0.00134303
0.00132933
0.00131547
0.0013018
0.00128791
0.00127427
0.00126035
0.00124674
0.00123279
0.00121922
0.00120522
0.0011917
0.00117765
0.00116418
0.00115008
0.00113666
0.00112252
0.00110913
0.00109496
0.0010816
0.0010674
0.00105406
0.00103985
0.00102652
0.00101231
0.000998966
0.000984781
0.000971404
0.000957258
0.000943834
0.000929742
0.000916257
0.000902233
0.000888676
0.000874727
0.000861092
0.000847222
0.000833508
0.000819715
0.000805928
0.000792204
0.000778353
0.000764685
0.000750787
0.000737157
0.00072323
0.000709622
0.000695678
0.000682084
0.000668127
0.000654547
0.000640571
0.000627018
0.000613007
0.000599498
0.000585435
0.000571981
0.000557864
0.00054446
0.0005303
0.000516929
0.000502748
0.000489385
0.00047521
0.000461828
0.000447685
0.000434257
0.000420171
0.00040668
0.000392659
0.000379106
0.000365139
0.000351544
0.000337606
0.000323991
0.000310068
0.00029644
0.000282531
0.000268887
0.000254994
0.000241338
0.000227453
0.00021379
0.000199911
0.000186242
0.00017237
0.000158695
0.000144827
0.000131148
0.000117285
0.000103601
8.9744e-05
7.60513e-05
6.22054e-05
4.84849e-05
3.46629e-05
2.07183e-05
6.98224e-06
0.00331551
0.00307262
0.00309575
0.00299226
0.00297728
0.00292384
0.00289765
0.00286071
0.002833
0.00280273
0.00277606
0.00274918
0.00272401
0.00269925
0.00267549
0.00265226
0.00262971
0.00260767
0.00258616
0.0025651
0.00254448
0.00252424
0.00250438
0.00248486
0.00246566
0.00244677
0.00242816
0.00240982
0.00239172
0.00237385
0.00235619
0.00233874
0.0023215
0.00230448
0.00228771
0.00227121
0.002255
0.00223908
0.00222349
0.00220821
0.00219327
0.00217864
0.00216431
0.00215027
0.00213649
0.00212291
0.00210949
0.00209619
0.00208295
0.00206974
0.00205651
0.00204325
0.00202993
0.00201655
0.0020031
0.00198959
0.00197602
0.00196241
0.00194876
0.00193507
0.00192136
0.00190764
0.00189389
0.00188014
0.00186638
0.00185262
0.00183886
0.00182509
0.00181132
0.00179755
0.00178377
0.00177
0.00175623
0.00174246
0.00172869
0.00171491
0.00170114
0.00168737
0.0016736
0.00165982
0.00164605
0.00163228
0.00161851
0.00160474
0.00159096
0.00157719
0.00156342
0.00154965
0.00153587
0.0015221
0.00150833
0.00149456
0.00148078
0.00146702
0.00145323
0.00143948
0.00142569
0.00141194
0.00139814
0.0013844
0.00137059
0.00135686
0.00134303
0.00132933
0.00131547
0.0013018
0.00128791
0.00127427
0.00126035
0.00124674
0.00123279
0.00121922
0.00120522
0.0011917
0.00117765
0.00116418
0.00115008
0.00113666
0.00112252
0.00110913
0.00109496
0.0010816
0.0010674
0.00105406
0.00103985
0.00102652
0.00101231
0.000998966
0.000984781
0.000971404
0.000957258
0.000943834
0.000929742
0.000916257
0.000902233
0.000888676
0.000874727
0.000861092
0.000847222
0.000833508
0.000819715
0.000805928
0.000792204
0.000778353
0.000764685
0.000750787
0.000737157
0.00072323
0.000709622
0.000695678
0.000682084
0.000668127
0.000654547
0.000640571
0.000627018
0.000613007
0.000599498
0.000585435
0.000571981
0.000557864
0.00054446
0.0005303
0.000516929
0.000502748
0.000489386
0.00047521
0.000461828
0.000447685
0.000434258
0.000420171
0.00040668
0.000392659
0.000379106
0.000365139
0.000351544
0.000337606
0.000323991
0.000310068
0.00029644
0.000282531
0.000268887
0.000254994
0.000241338
0.000227453
0.00021379
0.000199911
0.000186242
0.00017237
0.000158695
0.000144827
0.000131148
0.000117285
0.000103601
8.9744e-05
7.60514e-05
6.22054e-05
4.84857e-05
3.46636e-05
2.0733e-05
6.99712e-06
0.00331667
0.00307211
0.00309552
0.00299213
0.00297719
0.00292378
0.00289761
0.00286068
0.00283298
0.0028027
0.00277604
0.00274916
0.00272399
0.00269924
0.00267548
0.00265225
0.0026297
0.00260766
0.00258615
0.00256509
0.00254447
0.00252424
0.00250437
0.00248485
0.00246565
0.00244676
0.00242816
0.00240982
0.00239172
0.00237385
0.00235619
0.00233873
0.00232149
0.00230448
0.00228771
0.00227121
0.00225499
0.00223908
0.00222348
0.00220821
0.00219326
0.00217863
0.00216431
0.00215027
0.00213648
0.0021229
0.00210949
0.00209619
0.00208295
0.00206974
0.00205651
0.00204325
0.00202993
0.00201655
0.0020031
0.00198959
0.00197602
0.00196241
0.00194876
0.00193507
0.00192136
0.00190764
0.0018939
0.00188014
0.00186639
0.00185262
0.00183886
0.00182509
0.00181132
0.00179755
0.00178377
0.00177
0.00175623
0.00174246
0.00172869
0.00171491
0.00170114
0.00168737
0.0016736
0.00165982
0.00164605
0.00163228
0.00161851
0.00160474
0.00159096
0.00157719
0.00156342
0.00154965
0.00153587
0.0015221
0.00150833
0.00149456
0.00148078
0.00146702
0.00145323
0.00143948
0.00142569
0.00141194
0.00139814
0.0013844
0.00137059
0.00135686
0.00134303
0.00132933
0.00131547
0.0013018
0.00128791
0.00127427
0.00126035
0.00124674
0.00123279
0.00121922
0.00120522
0.0011917
0.00117765
0.00116418
0.00115008
0.00113666
0.00112252
0.00110913
0.00109496
0.0010816
0.0010674
0.00105406
0.00103985
0.00102652
0.00101231
0.000998966
0.000984781
0.000971404
0.000957258
0.000943834
0.000929742
0.000916257
0.000902233
0.000888676
0.000874727
0.000861092
0.000847222
0.000833508
0.000819715
0.000805928
0.000792204
0.000778353
0.000764685
0.000750787
0.000737157
0.00072323
0.000709622
0.000695678
0.000682084
0.000668127
0.000654547
0.000640571
0.000627018
0.000613007
0.000599498
0.000585435
0.000571981
0.000557864
0.00054446
0.0005303
0.000516929
0.000502748
0.000489386
0.00047521
0.000461828
0.000447685
0.000434258
0.000420171
0.00040668
0.000392659
0.000379106
0.000365139
0.000351544
0.000337606
0.000323991
0.000310068
0.00029644
0.000282531
0.000268887
0.000254994
0.000241338
0.000227453
0.00021379
0.000199911
0.000186242
0.00017237
0.000158695
0.000144827
0.000131148
0.000117285
0.000103601
8.9744e-05
7.60515e-05
6.22053e-05
4.84866e-05
3.46644e-05
2.07486e-05
7.01294e-06
0.00331794
0.00307155
0.00309527
0.00299198
0.00297709
0.00292372
0.00289756
0.00286064
0.00283295
0.00280268
0.00277602
0.00274915
0.00272398
0.00269922
0.00267546
0.00265223
0.00262969
0.00260765
0.00258615
0.00256509
0.00254446
0.00252423
0.00250437
0.00248484
0.00246565
0.00244676
0.00242815
0.00240981
0.00239171
0.00237384
0.00235618
0.00233873
0.00232149
0.00230447
0.00228771
0.0022712
0.00225499
0.00223907
0.00222348
0.00220821
0.00219326
0.00217863
0.00216431
0.00215027
0.00213648
0.0021229
0.00210949
0.00209619
0.00208295
0.00206974
0.00205651
0.00204325
0.00202993
0.00201655
0.0020031
0.00198959
0.00197602
0.00196241
0.00194876
0.00193507
0.00192136
0.00190764
0.0018939
0.00188014
0.00186639
0.00185262
0.00183886
0.00182509
0.00181132
0.00179755
0.00178377
0.00177
0.00175623
0.00174246
0.00172869
0.00171491
0.00170114
0.00168737
0.0016736
0.00165982
0.00164605
0.00163228
0.00161851
0.00160474
0.00159096
0.00157719
0.00156342
0.00154965
0.00153587
0.0015221
0.00150833
0.00149456
0.00148078
0.00146702
0.00145323
0.00143948
0.00142569
0.00141194
0.00139814
0.0013844
0.00137059
0.00135686
0.00134303
0.00132933
0.00131547
0.0013018
0.00128791
0.00127427
0.00126035
0.00124674
0.00123279
0.00121922
0.00120522
0.0011917
0.00117765
0.00116418
0.00115008
0.00113666
0.00112252
0.00110913
0.00109496
0.0010816
0.0010674
0.00105406
0.00103985
0.00102652
0.00101231
0.000998966
0.000984781
0.000971404
0.000957258
0.000943834
0.000929742
0.000916257
0.000902233
0.000888676
0.000874727
0.000861092
0.000847222
0.000833508
0.000819715
0.000805928
0.000792204
0.000778353
0.000764685
0.000750787
0.000737157
0.00072323
0.000709622
0.000695678
0.000682084
0.000668128
0.000654547
0.000640572
0.000627018
0.000613007
0.000599498
0.000585436
0.000571981
0.000557864
0.00054446
0.0005303
0.000516929
0.000502748
0.000489386
0.00047521
0.000461828
0.000447685
0.000434258
0.000420171
0.00040668
0.000392659
0.000379106
0.000365139
0.000351544
0.000337606
0.000323991
0.000310068
0.00029644
0.000282531
0.000268887
0.000254994
0.000241337
0.000227453
0.00021379
0.000199911
0.000186242
0.00017237
0.000158695
0.000144827
0.000131148