/*--------------------------------*- C++ -*----------------------------------*\
| =========                 |                                                 |
| \\      /  F ield         | OpenFOAM: The Open Source CFD Toolbox           |
|  \\    /   O peration     | Version:  2412                                  |
|   \\  /    A nd           | Website:  www.openfoam.com                      |
|    \\/     M anipulation  |                                                 |
\*---------------------------------------------------------------------------*/
FoamFile
{
    version     2.0;
    format      ascii;
    arch        "LSB;label=32;scalar=64";
    class       surfaceScalarField;
    location    "200";
    object      phi;
}
// * * * * * * * * * * * * * * * * * * * * * * * * * * * * * * * * * * * * * //

dimensions      [0 3 -1 0 0 0 0];

oriented        oriented;

internalField   nonuniform List<scalar> 
15760
(
1.3111e-08
-6.10951e-10
1.3527e-08
-4.16011e-10
1.37776e-08
-2.50657e-10
1.40115e-08
-2.3388e-10
1.41854e-08
-1.73854e-10
1.43506e-08
-1.65214e-10
1.44948e-08
-1.4427e-10
1.46315e-08
-1.36687e-10
1.4758e-08
-1.26454e-10
1.48783e-08
-1.20273e-10
1.49921e-08
-1.13872e-10
1.51011e-08
-1.08985e-10
1.52055e-08
-1.04375e-10
1.53059e-08
-1.00466e-10
1.54028e-08
-9.68624e-11
1.54965e-08
-9.36428e-11
1.55871e-08
-9.06592e-11
1.5675e-08
-8.7908e-11
1.57604e-08
-8.53313e-11
1.58433e-08
-8.29176e-11
1.59239e-08
-8.06342e-11
1.60024e-08
-7.84515e-11
1.60787e-08
-7.63329e-11
1.61529e-08
-7.42603e-11
1.62252e-08
-7.22435e-11
1.62955e-08
-7.03209e-11
1.63641e-08
-6.85362e-11
1.6431e-08
-6.69052e-11
1.64963e-08
-6.53857e-11
1.65602e-08
-6.38677e-11
1.66224e-08
-6.21867e-11
1.66826e-08
-6.01585e-11
1.67402e-08
-5.7621e-11
1.67946e-08
-5.44665e-11
1.68453e-08
-5.06557e-11
1.68915e-08
-4.62075e-11
1.69327e-08
-4.11752e-11
1.69683e-08
-3.5624e-11
1.69979e-08
-2.96232e-11
1.70212e-08
-2.32606e-11
1.70379e-08
-1.66684e-11
1.70479e-08
-1.00454e-11
1.70516e-08
-3.65782e-12
1.70494e-08
2.18782e-12
1.70422e-08
7.19407e-12
1.70311e-08
1.11272e-11
1.70172e-08
1.38588e-11
1.70018e-08
1.53831e-11
1.6986e-08
1.58071e-11
1.69707e-08
1.53212e-11
1.69565e-08
1.41605e-11
1.6944e-08
1.25673e-11
1.69332e-08
1.07617e-11
1.69243e-08
8.92331e-12
1.69171e-08
7.18338e-12
1.69115e-08
5.62587e-12
1.69072e-08
4.29366e-12
1.6904e-08
3.19765e-12
1.69016e-08
2.32643e-12
1.69e-08
1.65511e-12
1.68988e-08
1.15242e-12
1.6898e-08
7.85897e-13
1.68975e-08
5.25282e-13
1.68972e-08
3.44314e-13
1.6897e-08
2.21466e-13
1.68968e-08
1.39855e-13
1.68967e-08
8.67551e-14
1.68967e-08
5.28824e-14
1.68966e-08
3.16951e-14
1.68966e-08
1.86804e-14
1.68966e-08
1.08373e-14
1.68966e-08
6.18215e-15
1.68966e-08
3.47746e-15
1.68966e-08
1.92033e-15
1.68966e-08
1.05185e-15
1.68966e-08
5.55545e-16
1.68966e-08
2.99377e-16
1.68966e-08
1.46665e-16
1.68966e-08
8.70699e-17
1.68966e-08
2.91004e-17
1.68966e-08
3.17834e-17
1.68966e-08
-4.8523e-18
1.68966e-08
3.035e-17
1.68966e-08
-2.52751e-17
1.68966e-08
3.74325e-17
1.68966e-08
-4.01567e-17
1.68966e-08
5.50486e-17
1.68966e-08
-5.61182e-17
1.68966e-08
6.24266e-17
1.68966e-08
-5.69221e-17
1.68966e-08
5.20843e-17
1.68966e-08
-2.5782e-17
1.68966e-08
-1.5494e-17
1.68966e-08
9.34741e-17
1.68966e-08
-1.9797e-16
1.68966e-08
3.66277e-16
1.68966e-08
-6.02448e-16
1.68966e-08
9.35147e-16
1.68966e-08
-1.3803e-15
1.68966e-08
1.97468e-15
1.68966e-08
-2.76148e-15
1.68966e-08
3.7634e-15
1.68966e-08
-5.03485e-15
1.68966e-08
6.62054e-15
1.68966e-08
-8.58639e-15
1.68966e-08
1.09757e-14
1.68966e-08
-1.38497e-14
1.68966e-08
1.72715e-14
1.68966e-08
-2.13115e-14
1.68966e-08
2.6013e-14
1.68966e-08
-3.1435e-14
1.68966e-08
3.76309e-14
1.68966e-08
-4.46454e-14
1.68966e-08
5.25123e-14
1.68966e-08
-6.12259e-14
1.68966e-08
7.08314e-14
1.68966e-08
-8.12792e-14
1.68966e-08
9.25982e-14
1.68967e-08
-1.04654e-13
1.68965e-08
1.17493e-13
1.68967e-08
-1.30915e-13
1.68965e-08
1.44961e-13
1.68967e-08
-1.59329e-13
1.68965e-08
1.74107e-13
1.68967e-08
-1.88915e-13
1.68965e-08
2.03873e-13
1.68967e-08
-2.18494e-13
1.68965e-08
2.32994e-13
1.68967e-08
-2.46802e-13
1.68965e-08
2.60218e-13
1.68967e-08
-2.7255e-13
1.68965e-08
2.84221e-13
1.68968e-08
-2.94424e-13
1.68964e-08
3.03621e-13
1.68968e-08
-3.10797e-13
1.68964e-08
3.16395e-13
1.68968e-08
-3.19109e-13
1.68964e-08
3.19182e-13
1.68968e-08
-3.14893e-13
1.68965e-08
3.06261e-13
1.68967e-08
-2.91309e-13
1.68965e-08
2.70052e-13
1.68967e-08
-2.40932e-13
1.68965e-08
2.04896e-13
1.68967e-08
-1.62316e-13
1.68966e-08
1.16489e-13
1.68966e-08
-7.13534e-14
1.68966e-08
3.35044e-14
1.68966e-08
-1.03955e-14
1.68966e-08
1.0145e-14
1.68966e-08
-3.97109e-14
1.68965e-08
1.03247e-13
1.68967e-08
-1.99812e-13
1.68964e-08
3.23347e-13
1.68969e-08
-4.60199e-13
1.68963e-08
5.9466e-13
1.6897e-08
-7.05632e-13
1.68962e-08
7.79092e-13
1.6897e-08
-8.00922e-13
1.68962e-08
7.72297e-13
1.68969e-08
-6.95509e-13
1.68963e-08
5.869e-13
1.68968e-08
-4.57797e-13
1.68965e-08
3.2462e-13
1.68967e-08
-1.9345e-13
1.68966e-08
7.03605e-14
1.68965e-08
4.48761e-14
1.68967e-08
-1.49169e-13
1.68965e-08
2.3811e-13
1.68968e-08
-3.0323e-13
1.68964e-08
3.35692e-13
1.68968e-08
-3.30567e-13
1.68965e-08
2.8989e-13
1.68967e-08
-2.25072e-13
1.68965e-08
1.53704e-13
1.68966e-08
-9.3883e-14
1.68966e-08
5.81871e-14
1.68966e-08
-4.7237e-14
1.68966e-08
5.22551e-14
1.68966e-08
-5.79916e-14
1.68966e-08
5.4417e-14
1.68966e-08
-3.99192e-14
1.68966e-08
2.34997e-14
1.68966e-08
-1.42033e-14
1.68966e-08
1.60456e-14
1.68966e-08
-2.27065e-14
1.68966e-08
2.72887e-14
1.68966e-08
-2.70922e-14
1.68966e-08
2.87259e-14
1.68966e-08
-3.77803e-14
1.68966e-08
5.56804e-14
1.68966e-08
-7.81936e-14
1.68965e-08
1.06574e-13
1.68967e-08
-1.5085e-13
1.68965e-08
2.21653e-13
1.68968e-08
-3.74065e-13
1.68963e-08
5.60243e-13
1.68979e-08
-1.62277e-12
1.68958e-08
2.06487e-12
-6.40788e-12
1.31373e-08
-1.24829e-09
1.35107e-08
-7.89393e-10
1.37873e-08
-5.27223e-10
1.40066e-08
-4.53191e-10
1.41887e-08
-3.55917e-10
1.43495e-08
-3.26071e-10
1.44962e-08
-2.90977e-10
1.46316e-08
-2.72063e-10
1.47588e-08
-2.5366e-10
1.48787e-08
-2.40144e-10
1.49928e-08
-2.27986e-10
1.51016e-08
-2.17844e-10
1.52061e-08
-2.08826e-10
1.53065e-08
-2.00881e-10
1.54034e-08
-1.93728e-10
1.5497e-08
-1.87236e-10
1.55876e-08
-1.81274e-10
1.56754e-08
-1.75739e-10
1.57607e-08
-1.70569e-10
1.58434e-08
-1.65712e-10
1.59239e-08
-1.61121e-10
1.60022e-08
-1.56732e-10
1.60784e-08
-1.52478e-10
1.61524e-08
-1.48315e-10
1.62244e-08
-1.44259e-10
1.62945e-08
-1.40379e-10
1.63627e-08
-1.36764e-10
1.64293e-08
-1.33454e-10
1.64943e-08
-1.30383e-10
1.65577e-08
-1.27351e-10
1.66196e-08
-1.24048e-10
1.66796e-08
-1.20113e-10
1.67372e-08
-1.15216e-10
1.67918e-08
-1.09131e-10
1.68429e-08
-1.01759e-10
1.68898e-08
-9.31227e-11
1.6932e-08
-8.33188e-11
1.69688e-08
-7.24742e-11
1.69999e-08
-6.07254e-11
1.70249e-08
-4.82391e-11
1.70435e-08
-3.52603e-11
1.70556e-08
-2.2159e-11
1.70614e-08
-9.43853e-12
1.70613e-08
2.30868e-12
1.7056e-08
1.24917e-11
1.70465e-08
2.06278e-11
1.70339e-08
2.64294e-11
1.70194e-08
2.98455e-11
1.70042e-08
3.10515e-11
1.69891e-08
3.03968e-11
1.6975e-08
2.83316e-11
1.69622e-08
2.53321e-11
1.69511e-08
2.18401e-11
1.69418e-08
1.82235e-11
1.69342e-08
1.47575e-11
1.69282e-08
1.16234e-11
1.69236e-08
8.91939e-12
1.69201e-08
6.67776e-12
1.69176e-08
4.88344e-12
1.69157e-08
3.49182e-12
1.69145e-08
2.44335e-12
1.69136e-08
1.67441e-12
1.6913e-08
1.12456e-12
1.69126e-08
7.40662e-13
1.69123e-08
4.78663e-13
1.69121e-08
3.03701e-13
1.6912e-08
1.89276e-13
1.6912e-08
1.15917e-13
1.69119e-08
6.97993e-14
1.69119e-08
4.13318e-14
1.69119e-08
2.40888e-14
1.69119e-08
1.38081e-14
1.69119e-08
7.80349e-15
1.69119e-08
4.32934e-15
1.69119e-08
2.38239e-15
1.69119e-08
1.26495e-15
1.69119e-08
6.89559e-16
1.69119e-08
3.31483e-16
1.69119e-08
2.1017e-16
1.69119e-08
5.19584e-17
1.69119e-08
1.00787e-16
1.69119e-08
-5.19101e-17
1.69119e-08
1.26245e-16
1.69119e-08
-1.4302e-16
1.69119e-08
2.1085e-16
1.69119e-08
-2.7131e-16
1.69119e-08
3.76023e-16
1.69119e-08
-4.80004e-16
1.69119e-08
6.31478e-16
1.69119e-08
-8.00771e-16
1.69119e-08
1.02454e-15
1.69119e-08
-1.27601e-15
1.69119e-08
1.58315e-15
1.69119e-08
-1.91946e-15
1.69119e-08
2.32338e-15
1.69119e-08
-2.74771e-15
1.69119e-08
3.21335e-15
1.69119e-08
-3.68472e-15
1.69119e-08
4.16024e-15
1.69119e-08
-4.5996e-15
1.69119e-08
4.95255e-15
1.69119e-08
-5.19678e-15
1.69119e-08
5.2523e-15
1.69119e-08
-5.06023e-15
1.69119e-08
4.51421e-15
1.69119e-08
-3.53918e-15
1.69119e-08
2.01655e-15
1.69119e-08
1.70014e-16
1.69119e-08
-3.17099e-15
1.69119e-08
7.0972e-15
1.69119e-08
-1.21041e-14
1.69119e-08
1.83395e-14
1.69119e-08
-2.59463e-14
1.69119e-08
3.50738e-14
1.69119e-08
-4.57987e-14
1.69119e-08
5.83043e-14
1.69119e-08
-7.25969e-14
1.69119e-08
8.88533e-14
1.69119e-08
-1.06937e-13
1.69119e-08
1.27058e-13
1.69119e-08
-1.48941e-13
1.69119e-08
1.72796e-13
1.69119e-08
-1.98139e-13
1.69119e-08
2.25252e-13
1.69119e-08
-2.53458e-13
1.69118e-08
2.83085e-13
1.69119e-08
-3.13212e-13
1.69118e-08
3.44311e-13
1.6912e-08
-3.75232e-13
1.69118e-08
4.06578e-13
1.6912e-08
-4.36915e-13
1.69118e-08
4.67021e-13
1.6912e-08
-4.95162e-13
1.69118e-08
5.22151e-13
1.6912e-08
-5.45783e-13
1.69118e-08
5.66773e-13
1.6912e-08
-5.82265e-13
1.69118e-08
5.92547e-13
1.6912e-08
-5.93934e-13
1.69117e-08
5.86258e-13
1.6912e-08
-5.65381e-13
1.69118e-08
5.31245e-13
1.6912e-08
-4.80764e-13
1.69118e-08
4.15954e-13
1.6912e-08
-3.37872e-13
1.69118e-08
2.53491e-13
1.69119e-08
-1.71174e-13
1.69119e-08
1.04449e-13
1.69119e-08
-6.8408e-14
1.69118e-08
7.90804e-14
1.6912e-08
-1.49677e-13
1.69118e-08
2.87442e-13
1.69121e-08
-4.88982e-13
1.69116e-08
7.40884e-13
1.69122e-08
-1.01473e-12
1.69115e-08
1.2791e-12
1.69123e-08
-1.49259e-12
1.69115e-08
1.62915e-12
1.69123e-08
-1.66301e-12
1.69115e-08
1.5988e-12
1.69122e-08
-1.44279e-12
1.69116e-08
1.22765e-12
1.69121e-08
-9.7516e-13
1.69117e-08
7.15854e-13
1.6912e-08
-4.60126e-13
1.69118e-08
2.18566e-13
1.69119e-08
9.18885e-15
1.69119e-08
-2.16384e-13
1.69118e-08
3.9297e-13
1.6912e-08
-5.21482e-13
1.69118e-08
5.8448e-13
1.6912e-08
-5.73322e-13
1.69118e-08
4.9358e-13
1.69119e-08
-3.6899e-13
1.69119e-08
2.3457e-13
1.69119e-08
-1.24993e-13
1.69119e-08
6.31215e-14
1.69119e-08
-4.8027e-14
1.69119e-08
6.11812e-14
1.69119e-08
-7.29243e-14
1.69119e-08
6.52322e-14
1.69119e-08
-3.68925e-14
1.69119e-08
6.4639e-15
1.69119e-08
9.0995e-15
1.69119e-08
-3.57355e-15
1.69119e-08
-9.66953e-15
1.69119e-08
1.7709e-14
1.69119e-08
-1.66214e-14
1.69119e-08
1.99549e-14
1.69119e-08
-3.77537e-14
1.69119e-08
7.14945e-14
1.69119e-08
-1.12485e-13
1.69118e-08
1.63515e-13
1.69119e-08
-2.43119e-13
1.69118e-08
3.68035e-13
1.69121e-08
-6.35141e-13
1.69117e-08
9.17129e-13
1.69128e-08
-2.68598e-12
1.69132e-08
1.65257e-12
-1.61897e-11
1.31379e-08
-1.88621e-09
1.35118e-08
-1.16324e-09
1.37883e-08
-8.03791e-10
1.40077e-08
-6.72509e-10
1.41897e-08
-5.37996e-10
1.43506e-08
-4.86941e-10
1.44973e-08
-4.377e-10
1.46327e-08
-4.07455e-10
1.47599e-08
-3.80883e-10
1.48798e-08
-3.60032e-10
1.4994e-08
-3.42114e-10
1.51028e-08
-3.26711e-10
1.52073e-08
-3.13271e-10
1.53077e-08
-3.01271e-10
1.54045e-08
-2.90545e-10
1.5498e-08
-2.80748e-10
1.55885e-08
-2.71771e-10
1.56762e-08
-2.63411e-10
1.57612e-08
-2.55603e-10
1.58437e-08
-2.48252e-10
1.59239e-08
-2.41304e-10
1.60019e-08
-2.34659e-10
1.60776e-08
-2.28225e-10
1.61512e-08
-2.21932e-10
1.62227e-08
-2.15793e-10
1.62923e-08
-2.09906e-10
1.63599e-08
-2.04402e-10
1.64258e-08
-1.99352e-10
1.64901e-08
-1.94679e-10
1.65529e-08
-1.90109e-10
1.6614e-08
-1.85202e-10
1.66733e-08
-1.79431e-10
1.67304e-08
-1.72304e-10
1.67848e-08
-1.63464e-10
1.68357e-08
-1.52742e-10
1.68828e-08
-1.40151e-10
1.69253e-08
-1.25822e-10
1.69627e-08
-1.09939e-10
1.69947e-08
-9.27045e-11
1.70208e-08
-7.43579e-11
1.70408e-08
-5.52428e-11
1.70545e-08
-3.58762e-11
1.70621e-08
-1.69704e-11
1.70638e-08
6.20832e-13
1.70602e-08
1.60259e-11
1.70523e-08
2.85097e-11
1.70412e-08
3.76064e-11
1.70278e-08
4.31903e-11
1.70134e-08
4.5472e-11
1.69989e-08
4.49297e-11
1.6985e-08
4.22058e-11
1.69723e-08
3.79973e-11
1.69612e-08
3.29635e-11
1.69518e-08
2.76632e-11
1.6944e-08
2.25229e-11
1.69378e-08
1.78307e-11
1.6933e-08
1.37501e-11
1.69293e-08
1.03435e-11
1.69266e-08
7.59924e-12
1.69246e-08
5.45836e-12
1.69232e-08
3.83641e-12
1.69222e-08
2.6406e-12
1.69216e-08
1.78115e-12
1.69212e-08
1.17815e-12
1.69209e-08
7.64637e-13
1.69207e-08
4.87201e-13
1.69206e-08
3.04918e-13
1.69205e-08
1.87528e-13
1.69205e-08
1.13395e-13
1.69204e-08
6.74316e-14
1.69204e-08
3.94651e-14
1.69204e-08
2.27207e-14
1.69204e-08
1.28938e-14
1.69204e-08
7.18656e-15
1.69204e-08
3.96706e-15
1.69204e-08
2.12391e-15
1.69204e-08
1.15552e-15
1.69204e-08
5.68843e-16
1.69204e-08
3.44764e-16
1.69204e-08
1.05189e-16
1.69204e-08
1.52199e-16
1.69204e-08
-6.07072e-17
1.69204e-08
1.73384e-16
1.69204e-08
-1.90201e-16
1.69204e-08
2.89476e-16
1.69204e-08
-3.72754e-16
1.69204e-08
5.21229e-16
1.69204e-08
-6.69829e-16
1.69204e-08
8.92841e-16
1.69204e-08
-1.1429e-15
1.69204e-08
1.47731e-15
1.69204e-08
-1.86131e-15
1.69204e-08
2.34088e-15
1.69204e-08
-2.87858e-15
1.69204e-08
3.53453e-15
1.69204e-08
-4.25021e-15
1.69204e-08
5.06695e-15
1.69204e-08
-5.93725e-15
1.69204e-08
6.8698e-15
1.69204e-08
-7.82019e-15
1.69204e-08
8.7345e-15
1.69204e-08
-9.58623e-15
1.69204e-08
1.02746e-14
1.69204e-08
-1.07337e-14
1.69204e-08
1.08259e-14
1.69204e-08
-1.04533e-14
1.69204e-08
9.44962e-15
1.69204e-08
-7.66533e-15
1.69204e-08
4.88914e-15
1.69204e-08
-9.58339e-16
1.69204e-08
-4.35665e-15
1.69204e-08
1.12757e-14
1.69204e-08
-2.00107e-14
1.69204e-08
3.08104e-14
1.69204e-08
-4.38109e-14
1.69204e-08
5.93127e-14
1.69204e-08
-7.73558e-14
1.69204e-08
9.82549e-14
1.69204e-08
-1.21863e-13
1.69204e-08
1.48543e-13
1.69204e-08
-1.77941e-13
1.69204e-08
2.10447e-13
1.69204e-08
-2.45405e-13
1.69204e-08
2.83306e-13
1.69204e-08
-3.23185e-13
1.69203e-08
3.65617e-13
1.69204e-08
-4.09272e-13
1.69203e-08
4.54912e-13
1.69205e-08
-5.00832e-13
1.69203e-08
5.47982e-13
1.69205e-08
-5.94214e-13
1.69203e-08
6.40697e-13
1.69205e-08
-6.84778e-13
1.69203e-08
7.27656e-13
1.69205e-08
-7.65939e-13
1.69203e-08
8.00621e-13
1.69205e-08
-8.27287e-13
1.69203e-08
8.46279e-13
1.69205e-08
-8.51957e-13
1.69203e-08
8.43995e-13
1.69205e-08
-8.16168e-13
1.69203e-08
7.68463e-13
1.69205e-08
-6.96473e-13
1.69203e-08
6.03498e-13
1.69205e-08
-4.916e-13
1.69203e-08
3.71657e-13
1.69204e-08
-2.56655e-13
1.69204e-08
1.66992e-13
1.69204e-08
-1.2505e-13
1.69203e-08
1.5405e-13
1.69205e-08
-2.72301e-13
1.69203e-08
4.88821e-13
1.69206e-08
-7.96305e-13
1.69201e-08
1.17301e-12
1.69207e-08
-1.57531e-12
1.692e-08
1.95676e-12
1.69208e-08
-2.25723e-12
1.692e-08
2.44102e-12
1.69208e-08
-2.47344e-12
1.692e-08
2.36459e-12
1.69207e-08
-2.1261e-12
1.69201e-08
1.80651e-12
1.69206e-08
-1.43709e-12
1.69202e-08
1.06028e-12
1.69205e-08
-6.89407e-13
1.69204e-08
3.38413e-13
1.69204e-08
-6.95314e-15
1.69204e-08
-2.94208e-13
1.69203e-08
5.48923e-13
1.69205e-08
-7.31065e-13
1.69203e-08
8.15717e-13
1.69205e-08
-7.92113e-13
1.69203e-08
6.70811e-13
1.69204e-08
-4.88214e-13
1.69204e-08
2.9591e-13
1.69204e-08
-1.43098e-13
1.69204e-08
6.05608e-14
1.69204e-08
-4.41231e-14
1.69204e-08
6.52046e-14
1.69204e-08
-8.10124e-14
1.69204e-08
6.74157e-14
1.69204e-08
-2.49538e-14
1.69204e-08
-1.84079e-14
1.69204e-08
3.91269e-14
1.69204e-08
-3.01536e-14
1.69204e-08
1.20695e-14
1.69204e-08
-2.86502e-15
1.69204e-08
6.72861e-15
1.69204e-08
-3.44422e-15
1.69204e-08
-2.02366e-14
1.69204e-08
6.47544e-14
1.69204e-08
-1.16621e-13
1.69204e-08
1.79563e-13
1.69204e-08
-2.77705e-13
1.69203e-08
4.2735e-13
1.69205e-08
-7.52614e-13
1.69204e-08
1.01545e-12
1.69209e-08
-3.22961e-12
1.69222e-08
3.49465e-13
-2.7798e-11
1.3139e-08
-2.52521e-09
1.35135e-08
-1.53777e-09
1.379e-08
-1.08029e-09
1.40093e-08
-8.91789e-10
1.41914e-08
-7.20076e-10
1.43523e-08
-6.4782e-10
1.4499e-08
-5.84443e-10
1.46344e-08
-5.42868e-10
1.47617e-08
-5.08132e-10
1.48816e-08
-4.79946e-10
1.49957e-08
-4.56262e-10
1.51046e-08
-4.35583e-10
1.5209e-08
-4.177e-10
1.53094e-08
-4.01613e-10
1.54061e-08
-3.87271e-10
1.54995e-08
-3.74117e-10
1.55898e-08
-3.62067e-10
1.56772e-08
-3.50817e-10
1.57619e-08
-3.40301e-10
1.5844e-08
-3.30382e-10
1.59237e-08
-3.20999e-10
1.60011e-08
-3.12025e-10
1.60762e-08
-3.03341e-10
1.61491e-08
-2.94851e-10
1.62199e-08
-2.86567e-10
1.62886e-08
-2.78608e-10
1.63553e-08
-2.71146e-10
1.64202e-08
-2.64286e-10
1.64835e-08
-2.57944e-10
1.65452e-08
-2.5179e-10
1.66053e-08
-2.45266e-10
1.66635e-08
-2.37694e-10
1.67196e-08
-2.28421e-10
1.67731e-08
-2.16961e-10
1.68235e-08
-2.03067e-10
1.687e-08
-1.86728e-10
1.69123e-08
-1.68105e-10
1.69498e-08
-1.47434e-10
1.69821e-08
-1.24982e-10
1.70088e-08
-1.01056e-10
1.70296e-08
-7.60895e-11
1.70445e-08
-5.07253e-11
1.70534e-08
-2.58587e-11
1.70566e-08
-2.57851e-12
1.70546e-08
1.79824e-11
1.70483e-08
3.48428e-11
1.70385e-08
4.73503e-11
1.70264e-08
5.52846e-11
1.70131e-08
5.88645e-11
1.69993e-08
5.86696e-11
1.6986e-08
5.55112e-11
1.69737e-08
5.02904e-11
1.69628e-08
4.38747e-11
1.69535e-08
3.70114e-11
1.69457e-08
3.02804e-11
1.69395e-08
2.40824e-11
1.69345e-08
1.86529e-11
1.69308e-08
1.40913e-11
1.6928e-08
1.03954e-11
1.6926e-08
7.4969e-12
1.69245e-08
5.29004e-12
1.69235e-08
3.6553e-12
1.69228e-08
2.47508e-12
1.69223e-08
1.64338e-12
1.6922e-08
1.07061e-12
1.69218e-08
6.84719e-13
1.69217e-08
4.30141e-13
1.69216e-08
2.65532e-13
1.69216e-08
1.61163e-13
1.69216e-08
9.61976e-14
1.69215e-08
5.65114e-14
1.69215e-08
3.266e-14
1.69215e-08
1.86028e-14
1.69215e-08
1.04121e-14
1.69215e-08
5.76377e-15
1.69215e-08
3.10826e-15
1.69215e-08
1.68648e-15
1.69215e-08
8.50929e-16
1.69215e-08
4.91194e-16
1.69215e-08
1.8307e-16
1.69215e-08
1.90148e-16
1.69215e-08
-3.85706e-17
1.69215e-08
1.82837e-16
1.69215e-08
-1.81698e-16
1.69215e-08
2.9218e-16
1.69215e-08
-3.69932e-16
1.69215e-08
5.25042e-16
1.69215e-08
-6.70206e-16
1.69215e-08
9.02546e-16
1.69215e-08
-1.15478e-15
1.69215e-08
1.50082e-15
1.69215e-08
-1.89392e-15
1.69215e-08
2.39389e-15
1.69215e-08
-2.94866e-15
1.69215e-08
3.63426e-15
1.69215e-08
-4.37712e-15
1.69215e-08
5.23355e-15
1.69215e-08
-6.14057e-15
1.69215e-08
7.11383e-15
1.69215e-08
-8.10123e-15
1.69215e-08
9.04484e-15
1.69215e-08
-9.91256e-15
1.69215e-08
1.05863e-14
1.69215e-08
-1.0995e-14
1.69215e-08
1.09768e-14
1.69215e-08
-1.04188e-14
1.69215e-08
9.1188e-15
1.69215e-08
-6.90612e-15
1.69215e-08
3.52605e-15
1.69215e-08
1.21955e-15
1.69215e-08
-7.61251e-15
1.69215e-08
1.59255e-14
1.69215e-08
-2.64137e-14
1.69215e-08
3.94054e-14
1.69215e-08
-5.50699e-14
1.69215e-08
7.38077e-14
1.69215e-08
-9.56667e-14
1.69215e-08
1.21088e-13
1.69215e-08
-1.49893e-13
1.69215e-08
1.82597e-13
1.69215e-08
-2.18751e-13
1.69215e-08
2.58934e-13
1.69215e-08
-3.02312e-13
1.69215e-08
3.49606e-13
1.69216e-08
-3.99568e-13
1.69215e-08
4.53049e-13
1.69216e-08
-5.08325e-13
1.69215e-08
5.66482e-13
1.69216e-08
-6.25283e-13
1.69214e-08
6.86067e-13
1.69216e-08
-7.45993e-13
1.69214e-08
8.06658e-13
1.69216e-08
-8.64515e-13
1.69214e-08
9.21175e-13
1.69216e-08
-9.72082e-13
1.69214e-08
1.01852e-12
1.69216e-08
-1.05455e-12
1.69214e-08
1.08058e-12
1.69216e-08
-1.08906e-12
1.69214e-08
1.07957e-12
1.69216e-08
-1.0439e-12
1.69214e-08
9.82201e-13
1.69216e-08
-8.88951e-13
1.69214e-08
7.68891e-13
1.69216e-08
-6.25321e-13
1.69215e-08
4.73108e-13
1.69215e-08
-3.2988e-13
1.69215e-08
2.22642e-13
1.69215e-08
-1.8056e-13
1.69215e-08
2.33229e-13
1.69216e-08
-4.02964e-13
1.69214e-08
6.99442e-13
1.69217e-08
-1.11042e-12
1.69213e-08
1.60534e-12
1.69218e-08
-2.12553e-12
1.69212e-08
2.61063e-12
1.69219e-08
-2.98365e-12
1.69211e-08
3.2014e-12
1.69219e-08
-3.22267e-12
1.69212e-08
3.06426e-12
1.69218e-08
-2.74393e-12
1.69213e-08
2.32504e-12
1.69217e-08
-1.84718e-12
1.69214e-08
1.36264e-12
1.69216e-08
-8.86569e-13
1.69215e-08
4.35435e-13
1.69215e-08
-9.16333e-15
1.69216e-08
-3.77182e-13
1.69214e-08
7.01192e-13
1.69216e-08
-9.28556e-13
1.69214e-08
1.02803e-12
1.69216e-08
-9.87896e-13
1.69214e-08
8.24573e-13
1.69215e-08
-5.86882e-13
1.69215e-08
3.41811e-13
1.69215e-08
-1.51169e-13
1.69215e-08
5.18452e-14
1.69215e-08
-3.54688e-14
1.69215e-08
6.3647e-14
1.69215e-08
-8.17718e-14
1.69215e-08
6.10328e-14
1.69215e-08
-4.43874e-15
1.69215e-08
-5.11467e-14
1.69215e-08
7.67321e-14
1.69215e-08
-6.53162e-14
1.69215e-08
4.44962e-14
1.69215e-08
-3.65406e-14
1.69215e-08
4.54109e-14
1.69215e-08
-4.47668e-14
1.69215e-08
1.92253e-14
1.69215e-08
2.98719e-14
1.69215e-08
-8.39252e-14
1.69215e-08
1.46763e-13
1.69215e-08
-2.4542e-13
1.69215e-08
3.91152e-13
1.69215e-08
-7.27478e-13
1.69216e-08
9.0057e-13
1.69219e-08
-3.47382e-12
1.69233e-08
-1.08327e-12
-4.01895e-11
1.31405e-08
-3.16571e-09
1.3516e-08
-1.91323e-09
1.37923e-08
-1.35667e-09
1.40115e-08
-1.11099e-09
1.41936e-08
-9.02138e-10
1.43545e-08
-8.08701e-10
1.45013e-08
-7.3121e-10
1.46367e-08
-6.78312e-10
1.4764e-08
-6.35415e-10
1.48839e-08
-5.99889e-10
1.49981e-08
-5.70427e-10
1.5107e-08
-5.4445e-10
1.52113e-08
-5.22086e-10
1.53116e-08
-5.01861e-10
1.54082e-08
-4.83839e-10
1.55013e-08
-4.67255e-10
1.55913e-08
-4.52046e-10
1.56783e-08
-4.37814e-10
1.57625e-08
-4.24493e-10
1.5844e-08
-4.11904e-10
1.5923e-08
-3.99986e-10
1.59995e-08
-3.88582e-10
1.60737e-08
-3.77554e-10
1.61457e-08
-3.6678e-10
1.62154e-08
-3.56269e-10
1.62829e-08
-3.46158e-10
1.63484e-08
-3.36658e-10
1.64121e-08
-3.27906e-10
1.64739e-08
-3.19822e-10
1.65342e-08
-3.12023e-10
1.65928e-08
-3.03849e-10
1.66495e-08
-2.94481e-10
1.67042e-08
-2.83116e-10
1.67564e-08
-2.69137e-10
1.68056e-08
-2.52217e-10
1.68511e-08
-2.32316e-10
1.68927e-08
-2.09616e-10
1.69296e-08
-1.84402e-10
1.69616e-08
-1.57003e-10
1.69884e-08
-1.27794e-10
1.70096e-08
-9.72872e-11
1.70251e-08
-6.62377e-11
1.70349e-08
-3.56993e-11
1.70393e-08
-6.96843e-12
1.70387e-08
1.85839e-11
1.70338e-08
3.97443e-11
1.70255e-08
5.5675e-11
1.70147e-08
6.60501e-11
1.70025e-08
7.10767e-11
1.69898e-08
7.14122e-11
1.69773e-08
6.80137e-11
1.69656e-08
6.19677e-11
1.69551e-08
5.43369e-11
1.69461e-08
4.605e-11
1.69385e-08
3.78382e-11
1.69324e-08
3.02161e-11
1.69276e-08
2.3495e-11
1.69238e-08
1.78157e-11
1.6921e-08
1.31909e-11
1.6919e-08
9.54663e-12
1.69175e-08
6.75981e-12
1.69165e-08
4.68687e-12
1.69158e-08
3.18429e-12
1.69153e-08
2.12135e-12
1.6915e-08
1.38658e-12
1.69148e-08
8.89731e-13
1.69147e-08
5.60769e-13
1.69146e-08
3.4731e-13
1.69145e-08
2.1149e-13
1.69145e-08
1.26655e-13
1.69145e-08
7.46493e-14
1.69145e-08
4.32885e-14
1.69145e-08
2.47371e-14
1.69145e-08
1.38966e-14
1.69144e-08
7.7126e-15
1.69144e-08
4.18436e-15
1.69144e-08
2.26587e-15
1.69144e-08
1.16692e-15
1.69144e-08
6.46892e-16
1.69144e-08
2.80034e-16
1.69144e-08
2.17802e-16
1.69144e-08
7.67039e-18
1.69144e-08
1.62809e-16
1.69144e-08
-1.29324e-16
1.69144e-08
2.34672e-16
1.69144e-08
-2.83886e-16
1.69144e-08
4.15294e-16
1.69144e-08
-5.17497e-16
1.69144e-08
7.07578e-16
1.69144e-08
-8.9643e-16
1.69144e-08
1.17071e-15
1.69144e-08
-1.46853e-15
1.69144e-08
1.85902e-15
1.69144e-08
-2.27245e-15
1.69144e-08
2.79487e-15
1.69144e-08
-3.33416e-15
1.69144e-08
3.95613e-15
1.69144e-08
-4.57833e-15
1.69144e-08
5.21963e-15
1.69144e-08
-5.81612e-15
1.69144e-08
6.30422e-15
1.69144e-08
-6.64413e-15
1.69144e-08
6.70184e-15
1.69144e-08
-6.40214e-15
1.69144e-08
5.56366e-15
1.69144e-08
-4.06395e-15
1.69145e-08
1.67526e-15
1.69144e-08
1.78502e-15
1.69145e-08
-6.59929e-15
1.69144e-08
1.29871e-14
1.69145e-08
-2.12618e-14
1.69144e-08
3.17316e-14
1.69145e-08
-4.46695e-14
1.69144e-08
6.04655e-14
1.69145e-08
-7.92931e-14
1.69144e-08
1.01637e-13
1.69145e-08
-1.27523e-13
1.69144e-08
1.57509e-13
1.69145e-08
-1.91357e-13
1.69144e-08
2.2973e-13
1.69145e-08
-2.72063e-13
1.69144e-08
3.19132e-13
1.69145e-08
-3.69911e-13
1.69144e-08
4.25366e-13
1.69145e-08
-4.83962e-13
1.69144e-08
5.46858e-13
1.69145e-08
-6.11933e-13
1.69144e-08
6.80641e-13
1.69145e-08
-7.50223e-13
1.69144e-08
8.22448e-13
1.69145e-08
-8.93801e-13
1.69144e-08
9.66347e-13
1.69145e-08
-1.03567e-12
1.69144e-08
1.10383e-12
1.69145e-08
-1.16513e-12
1.69143e-08
1.22119e-12
1.69146e-08
-1.26457e-12
1.69143e-08
1.29581e-12
1.69146e-08
-1.30554e-12
1.69143e-08
1.29327e-12
1.69145e-08
-1.249e-12
1.69144e-08
1.17311e-12
1.69145e-08
-1.05918e-12
1.69144e-08
9.13487e-13
1.69145e-08
-7.407e-13
1.69144e-08
5.59625e-13
1.69145e-08
-3.92387e-13
1.69144e-08
2.72173e-13
1.69145e-08
-2.34296e-13
1.69144e-08
3.13867e-13
1.69145e-08
-5.36222e-13
1.69143e-08
9.10823e-13
1.69146e-08
-1.41987e-12
1.69142e-08
2.02399e-12
1.69147e-08
-2.65017e-12
1.69141e-08
3.22544e-12
1.69148e-08
-3.65807e-12
1.69141e-08
3.89924e-12
1.69148e-08
-3.90318e-12
1.69141e-08
3.69393e-12
1.69147e-08
-3.29567e-12
1.69142e-08
2.78506e-12
1.69146e-08
-2.2088e-12
1.69143e-08
1.62708e-12
1.69145e-08
-1.05608e-12
1.69144e-08
5.14213e-13
1.69144e-08
-1.96942e-15
1.69145e-08
-4.61091e-13
1.69144e-08
8.46359e-13
1.69145e-08
-1.1119e-12
1.69143e-08
1.2212e-12
1.69145e-08
-1.16234e-12
1.69144e-08
9.58008e-13
1.69145e-08
-6.68751e-13
1.69144e-08
3.75673e-13
1.69144e-08
-1.51518e-13
1.69144e-08
3.79919e-14
1.69144e-08
-2.21447e-14
1.69144e-08
5.63237e-14
1.69144e-08
-7.53194e-14
1.69145e-08
4.66363e-14
1.69144e-08
2.39853e-14
1.69145e-08
-9.14466e-14
1.69144e-08
1.22195e-13
1.69145e-08
-1.09757e-13
1.69144e-08
8.83716e-14
1.69145e-08
-8.39946e-14
1.69144e-08
1.00185e-13
1.69145e-08
-1.05098e-13
1.69144e-08
8.19998e-14
1.69145e-08
-3.44226e-14
1.69144e-08
-1.37951e-14
1.69145e-08
6.60283e-14
1.69144e-08
-1.50732e-13
1.69145e-08
2.72753e-13
1.69144e-08
-5.94918e-13
1.69146e-08
6.60687e-13
1.69148e-08
-3.61538e-12
1.6916e-08
-2.34377e-12
-5.26586e-11
1.31424e-08
-3.80814e-09
1.35191e-08
-2.28989e-09
1.37953e-08
-1.63288e-09
1.40144e-08
-1.33008e-09
1.41964e-08
-1.08416e-09
1.43573e-08
-9.69581e-10
1.45041e-08
-8.78004e-10
1.46396e-08
-8.13792e-10
1.47669e-08
-7.6274e-10
1.48869e-08
-7.19864e-10
1.5001e-08
-6.84601e-10
1.51099e-08
-6.53284e-10
1.52142e-08
-6.26381e-10
1.53142e-08
-6.01944e-10
1.54106e-08
-5.8015e-10
1.55033e-08
-5.60029e-10
1.55928e-08
-5.41547e-10
1.56792e-08
-5.24212e-10
1.57627e-08
-5.07958e-10
1.58434e-08
-4.92573e-10
1.59214e-08
-4.77991e-10
1.59968e-08
-4.64034e-10
1.60698e-08
-4.50545e-10
1.61404e-08
-4.37379e-10
1.62087e-08
-4.24541e-10
1.62747e-08
-4.12185e-10
1.63386e-08
-4.00558e-10
1.64005e-08
-3.8983e-10
1.64606e-08
-3.79923e-10
1.6519e-08
-3.70411e-10
1.65757e-08
-3.60541e-10
1.66306e-08
-3.49363e-10
1.66834e-08
-3.35934e-10
1.67338e-08
-3.19514e-10
1.67813e-08
-2.99692e-10
1.68254e-08
-2.76397e-10
1.68656e-08
-2.49826e-10
1.69015e-08
-2.20311e-10
1.69327e-08
-1.88241e-10
1.6959e-08
-1.54057e-10
1.698e-08
-1.18345e-10
1.69958e-08
-8.19596e-11
1.70061e-08
-4.60916e-11
1.70114e-08
-1.22192e-11
1.70119e-08
1.80749e-11
1.70083e-08
4.33648e-11
1.70013e-08
6.26367e-11
1.69919e-08
7.54555e-11
1.6981e-08
8.2004e-11
1.69694e-08
8.29977e-11
1.69579e-08
7.95185e-11
1.6947e-08
7.28182e-11
1.69372e-08
6.41391e-11
1.69287e-08
5.45801e-11
1.69215e-08
4.50176e-11
1.69157e-08
3.60779e-11
1.6911e-08
2.81483e-11
1.69074e-08
2.14141e-11
1.69047e-08
1.59053e-11
1.69027e-08
1.15467e-11
1.69013e-08
8.20074e-12
1.69003e-08
5.70284e-12
1.68995e-08
3.88593e-12
1.68991e-08
2.59631e-12
1.68988e-08
1.70193e-12
1.68986e-08
1.09522e-12
1.68984e-08
6.92262e-13
1.68983e-08
4.29978e-13
1.68983e-08
2.62581e-13
1.68983e-08
1.57705e-13
1.68982e-08
9.32174e-14
1.68982e-08
5.4215e-14
1.68982e-08
3.10695e-14
1.68982e-08
1.75098e-14
1.68982e-08
9.74082e-15
1.68982e-08
5.3112e-15
1.68982e-08
2.87246e-15
1.68982e-08
1.5038e-15
1.68982e-08
8.07362e-16
1.68982e-08
3.90391e-16
1.68982e-08
2.3701e-16
1.68982e-08
7.22109e-17
1.68982e-08
1.19708e-16
1.68982e-08
-4.27213e-17
1.68982e-08
1.29707e-16
1.68982e-08
-1.31917e-16
1.68982e-08
2.14971e-16
1.68982e-08
-2.42014e-16
1.68982e-08
3.47354e-16
1.68982e-08
-4.18603e-16
1.68982e-08
5.51443e-16
1.68982e-08
-6.66349e-16
1.68982e-08
8.37339e-16
1.68982e-08
-9.74369e-16
1.68982e-08
1.16781e-15
1.68982e-08
-1.30374e-15
1.68982e-08
1.4519e-15
1.68982e-08
-1.50642e-15
1.68982e-08
1.48512e-15
1.68982e-08
-1.30792e-15
1.68982e-08
9.02993e-16
1.68982e-08
-2.1996e-16
1.68982e-08
-8.91048e-16
1.68982e-08
2.5102e-15
1.68982e-08
-4.83459e-15
1.68982e-08
7.99315e-15
1.68982e-08
-1.22309e-14
1.68982e-08
1.77354e-14
1.68982e-08
-2.48027e-14
1.68982e-08
3.36625e-14
1.68982e-08
-4.46402e-14
1.68982e-08
5.80648e-14
1.68982e-08
-7.42019e-14
1.68982e-08
9.34869e-14
1.68982e-08
-1.16068e-13
1.68982e-08
1.42499e-13
1.68982e-08
-1.72754e-13
1.68982e-08
2.07492e-13
1.68982e-08
-2.46386e-13
1.68982e-08
2.90245e-13
1.68982e-08
-3.38358e-13
1.68982e-08
3.91701e-13
1.68983e-08
-4.49033e-13
1.68982e-08
5.11586e-13
1.68983e-08
-5.7752e-13
1.68982e-08
6.48328e-13
1.68983e-08
-7.21489e-13
1.68982e-08
7.98859e-13
1.68983e-08
-8.77162e-13
1.68981e-08
9.58637e-13
1.68983e-08
-1.03911e-12
1.68981e-08
1.12116e-12
1.68983e-08
-1.19953e-12
1.68981e-08
1.27675e-12
1.68983e-08
-1.34606e-12
1.68981e-08
1.40942e-12
1.68983e-08
-1.45801e-12
1.68981e-08
1.49249e-12
1.68983e-08
-1.50184e-12
1.68981e-08
1.48557e-12
1.68983e-08
-1.43204e-12
1.68981e-08
1.34197e-12
1.68983e-08
-1.2082e-12
1.68982e-08
1.03858e-12
1.68983e-08
-8.3921e-13
1.68982e-08
6.32642e-13
1.68982e-08
-4.45211e-13
1.68982e-08
3.15728e-13
1.68982e-08
-2.84931e-13
1.68982e-08
3.92592e-13
1.68983e-08
-6.66214e-13
1.68981e-08
1.11442e-12
1.68984e-08
-1.71366e-12
1.6898e-08
2.41609e-12
1.68985e-08
-3.13554e-12
1.68979e-08
3.78793e-12
1.68985e-08
-4.26893e-12
1.68979e-08
4.52559e-12
1.68985e-08
-4.50921e-12
1.68979e-08
4.251e-12
1.68984e-08
-3.78136e-12
1.6898e-08
3.18848e-12
1.68983e-08
-2.52493e-12
1.68981e-08
1.85706e-12
1.68983e-08
-1.20154e-12
1.68982e-08
5.78348e-13
1.68982e-08
1.11689e-14
1.68983e-08
-5.42877e-13
1.68981e-08
9.822e-13
1.68983e-08
-1.28016e-12
1.68981e-08
1.39584e-12
1.68983e-08
-1.31754e-12
1.68982e-08
1.0742e-12
1.68982e-08
-7.37148e-13
1.68982e-08
4.00327e-13
1.68982e-08
-1.46021e-13
1.68982e-08
1.992e-14
1.68982e-08
-4.5062e-15
1.68982e-08
4.35651e-14
1.68982e-08
-6.23248e-14
1.68982e-08
2.52333e-14
1.68982e-08
5.92675e-14
1.68982e-08
-1.38529e-13
1.68982e-08
1.75066e-13
1.68982e-08
-1.63134e-13
1.68982e-08
1.43169e-13
1.68982e-08
-1.4441e-13
1.68982e-08
1.70016e-13
1.68982e-08
-1.83198e-13
1.68982e-08
1.66342e-13
1.68983e-08
-1.25258e-13
1.68982e-08
8.88647e-14
1.68983e-08
-5.42901e-14
1.68981e-08
-8.2231e-15
1.68983e-08
9.84705e-14
1.68981e-08
-4.02956e-13