/*--------------------------------*- C++ -*----------------------------------*\
| =========                 |                                                 |
| \\      /  F ield         | OpenFOAM: The Open Source CFD Toolbox           |
|  \\    /   O peration     | Version:  2412                                  |
|   \\  /    A nd           | Website:  www.openfoam.com                      |
|    \\/     M anipulation  |                                                 |
\*---------------------------------------------------------------------------*/
FoamFile
{
    version     2.0;
    format      ascii;
    arch        "LSB;label=32;scalar=64";
    class       volVectorField;
    location    "200";
    object      U;
}
// * * * * * * * * * * * * * * * * * * * * * * * * * * * * * * * * * * * * * //

dimensions      [0 1 -1 0 0 0 0];

internalField   nonuniform List<vector> 
8000
(
(0.0500315 -4.09748e-05 0)
(0.0544544 -2.79041e-05 0)
(0.0540827 -1.65e-05 0)
(0.0559578 -1.5638e-05 0)
(0.0562412 -1.15205e-05 0)
(0.0571863 -1.10241e-05 0)
(0.0576503 -9.59368e-06 0)
(0.0582915 -9.11167e-06 0)
(0.0587706 -8.41944e-06 0)
(0.059288 -8.01481e-06 0)
(0.0597412 -7.58531e-06 0)
(0.0601942 -7.26217e-06 0)
(0.0606158 -6.95428e-06 0)
(0.0610276 -6.69483e-06 0)
(0.0614204 -6.45471e-06 0)
(0.061802 -6.24075e-06 0)
(0.0621698 -6.04219e-06 0)
(0.0625271 -5.85934e-06 0)
(0.0628732 -5.68807e-06 0)
(0.0632096 -5.52775e-06 0)
(0.0635366 -5.376e-06 0)
(0.0638547 -5.23084e-06 0)
(0.0641642 -5.08985e-06 0)
(0.0644653 -4.95201e-06 0)
(0.0647583 -4.81816e-06 0)
(0.0650433 -4.69097e-06 0)
(0.0653208 -4.57319e-06 0)
(0.0655916 -4.46547e-06 0)
(0.0658561 -4.36442e-06 0)
(0.0661147 -4.26216e-06 0)
(0.066367 -4.14738e-06 0)
(0.0666121 -4.00779e-06 0)
(0.0668483 -3.83289e-06 0)
(0.0670731 -3.61602e-06 0)
(0.0672839 -3.35508e-06 0)
(0.0674782 -3.05168e-06 0)
(0.0676535 -2.70954e-06 0)
(0.0678076 -2.33306e-06 0)
(0.0679385 -1.92698e-06 0)
(0.0680446 -1.49755e-06 0)
(0.0681246 -1.05423e-06 0)
(0.0681779 -6.1106e-07 0)
(0.0682049 -1.86448e-07 0)
(0.0682072 1.98905e-07 0)
(0.0681875 5.25434e-07 0)
(0.0681497 7.78308e-07 0)
(0.0680986 9.50036e-07 0)
(0.068039 1.04135e-06 0)
(0.0679756 1.06034e-06 0)
(0.0679126 1.02036e-06 0)
(0.0678531 9.37389e-07 0)
(0.0677993 8.2758e-07 0)
(0.0677526 7.0538e-07 0)
(0.0677132 5.82407e-07 0)
(0.0676812 4.67017e-07 0)
(0.0676558 3.64429e-07 0)
(0.0676362 2.77181e-07 0)
(0.0676214 2.05759e-07 0)
(0.0676106 1.49238e-07 0)
(0.0676028 1.05861e-07 0)
(0.0675973 7.3501e-08 0)
(0.0675935 4.99886e-08 0)
(0.067591 3.33245e-08 0)
(0.0675893 2.17888e-08 0)
(0.0675882 1.39808e-08 0)
(0.0675876 8.80806e-09 0)
(0.0675871 5.45144e-09 0)
(0.0675869 3.31576e-09 0)
(0.0675867 1.98311e-09 0)
(0.0675866 1.16634e-09 0)
(0.0675866 6.75239e-10 0)
(0.0675865 3.84361e-10 0)
(0.0675865 2.15786e-10 0)
(0.0675865 1.18751e-10 0)
(0.0675865 6.50157e-11 0)
(0.0675865 3.42727e-11 0)
(0.0675865 1.85156e-11 0)
(0.0675865 8.94862e-12 0)
(0.0675865 5.49093e-12 0)
(0.0675865 1.71231e-12 0)
(0.0675865 2.25589e-12 0)
(0.0675865 -8.18441e-13 0)
(0.0675865 2.34367e-12 0)
(0.0675865 -2.15829e-12 0)
(0.0675865 3.23211e-12 0)
(0.0675865 -3.6599e-12 0)
(0.0675865 4.77939e-12 0)
(0.0675865 -5.13896e-12 0)
(0.0675865 6.18916e-12 0)
(0.0675865 -6.34855e-12 0)
(0.0675864 6.44868e-12 0)
(0.0675866 -5.24652e-12 0)
(0.0675864 3.3135e-12 0)
(0.0675866 1.06602e-12 0)
(0.0675863 -7.59724e-12 0)
(0.0675867 1.83815e-11 0)
(0.0675862 -3.36435e-11 0)
(0.0675869 5.56808e-11 0)
(0.067586 -8.59012e-11 0)
(0.0675871 1.26841e-10 0)
(0.0675857 -1.81088e-10 0)
(0.0675875 2.50728e-10 0)
(0.0675852 -3.40248e-10 0)
(0.067588 4.52235e-10 0)
(0.0675846 -5.91305e-10 0)
(0.0675887 7.60889e-10 0)
(0.0675838 -9.65941e-10 0)
(0.0675897 1.21055e-09 0)
(0.0675826 -1.49931e-09 0)
(0.067591 1.83598e-09 0)
(0.0675811 -2.2249e-09 0)
(0.0675927 2.66939e-09 0)
(0.0675793 -3.17201e-09 0)
(0.0675948 3.73568e-09 0)
(0.067577 -4.3601e-09 0)
(0.0675973 5.04742e-09 0)
(0.0675742 -5.79387e-09 0)
(0.0676003 6.60087e-09 0)
(0.067571 -7.45959e-09 0)
(0.0676038 8.37146e-09 0)
(0.0675673 -9.32199e-09 0)
(0.0676076 1.03134e-08 0)
(0.0675633 -1.13247e-08 0)
(0.0676117 1.23603e-08 0)
(0.067559 -1.33933e-08 0)
(0.0676162 1.44308e-08 0)
(0.0675545 -1.544e-08 0)
(0.0676207 1.64335e-08 0)
(0.06755 -1.73722e-08 0)
(0.0676253 1.82756e-08 0)
(0.0675455 -1.90981e-08 0)
(0.0676297 1.98664e-08 0)
(0.0675411 -2.05276e-08 0)
(0.0676339 2.11125e-08 0)
(0.0675371 -2.15557e-08 0)
(0.0676377 2.18871e-08 0)
(0.0675335 -2.20216e-08 0)
(0.0676411 2.19781e-08 0)
(0.0675303 -2.16446e-08 0)
(0.067644 2.10241e-08 0)
(0.0675278 -1.99862e-08 0)
(0.0676462 1.85323e-08 0)
(0.067526 -1.65561e-08 0)
(0.0676476 1.41155e-08 0)
(0.067525 -1.12254e-08 0)
(0.067648 8.09588e-09 0)
(0.067525 -4.97519e-09 0)
(0.0676476 2.29274e-09 0)
(0.0675259 -5.39187e-10 0)
(0.0676465 2.60816e-10 0)
(0.067527 -1.93989e-09 0)
(0.0676456 5.88444e-09 0)
(0.0675274 -1.20807e-08 0)
(0.0676458 2.01707e-08 0)
(0.0675263 -2.92892e-08 0)
(0.0676479 3.84077e-08 0)
(0.0675233 -4.61139e-08 0)
(0.0676516 5.14265e-08 0)
(0.0675192 -5.33331e-08 0)
(0.0676557 5.18338e-08 0)
(0.0675155 -4.7003e-08 0)
(0.0676587 3.99016e-08 0)
(0.0675134 -3.12809e-08 0)
(0.0676597 2.22805e-08 0)
(0.0675135 -1.33542e-08 0)
(0.0676586 4.96268e-09 0)
(0.0675155 2.8935e-09 0)
(0.0676558 -1.00112e-08 0)
(0.067519 1.61256e-08 0)
(0.0676519 -2.06879e-08 0)
(0.0675232 2.31018e-08 0)
(0.0676475 -2.30021e-08 0)
(0.0675273 2.04668e-08 0)
(0.0676439 -1.62047e-08 0)
(0.0675303 1.1365e-08 0)
(0.0676416 -7.18192e-09 0)
(0.0675321 4.56285e-09 0)
(0.0676402 -3.63047e-09 0)
(0.0675334 3.86085e-09 0)
(0.0676388 -4.24522e-09 0)
(0.0675347 4.06629e-09 0)
(0.0676376 -3.14257e-09 0)
(0.0675358 2.02844e-09 0)
(0.0676367 -1.33972e-09 0)
(0.0675366 1.39986e-09 0)
(0.0676358 -1.83333e-09 0)
(0.0675375 2.17604e-09 0)
(0.067635 -2.20144e-09 0)
(0.0675384 2.31618e-09 0)
(0.0676341 -2.91038e-09 0)
(0.0675393 4.12631e-09 0)
(0.0676331 -5.70077e-09 0)
(0.0675405 7.70369e-09 0)
(0.0676316 -1.08112e-08 0)
(0.0675422 1.58003e-08 0)
(0.0676294 -2.66451e-08 0)
(0.0675456 4.06795e-08 0)
(0.0676248 -1.19185e-07 0)
(0.0675582 1.58639e-07 0)
(0.067609 -3.94286e-07 0)
(0.0500304 -0.000124014 0)
(0.0544557 -8.08705e-05 0)
(0.0540846 -5.14262e-05 0)
(0.0559597 -4.59658e-05 0)
(0.0562433 -3.51781e-05 0)
(0.0571884 -3.27957e-05 0)
(0.0576525 -2.89708e-05 0)
(0.0582938 -2.72586e-05 0)
(0.0587729 -2.53229e-05 0)
(0.0592903 -2.40267e-05 0)
(0.0597435 -2.27816e-05 0)
(0.0601965 -2.17855e-05 0)
(0.0606182 -2.0875e-05 0)
(0.0610299 -2.00872e-05 0)
(0.0614227 -1.93702e-05 0)
(0.0618041 -1.87243e-05 0)
(0.0621718 -1.81287e-05 0)
(0.0625288 -1.75778e-05 0)
(0.0628746 -1.70627e-05 0)
(0.0632106 -1.65794e-05 0)
(0.063537 -1.61225e-05 0)
(0.0638545 -1.56856e-05 0)
(0.0641633 -1.52619e-05 0)
(0.0644636 -1.48475e-05 0)
(0.0647557 -1.44441e-05 0)
(0.0650398 -1.40591e-05 0)
(0.0653162 -1.3701e-05 0)
(0.0655856 -1.33732e-05 0)
(0.0658486 -1.30679e-05 0)
(0.0661056 -1.27638e-05 0)
(0.0663564 -1.24289e-05 0)
(0.0666004 -1.20271e-05 0)
(0.066836 -1.15257e-05 0)
(0.0670611 -1.09031e-05 0)
(0.0672732 -1.01504e-05 0)
(0.0674699 -9.27068e-06 0)
(0.0676485 -8.27416e-06 0)
(0.0678069 -7.17361e-06 0)
(0.0679432 -5.9829e-06 0)
(0.0680557 -4.71942e-06 0)
(0.0681431 -3.40907e-06 0)
(0.0682045 -2.09063e-06 0)
(0.06824 -8.16154e-07 0)
(0.0682508 3.54081e-07 0)
(0.0682391 1.36105e-06 0)
(0.0682085 2.15769e-06 0)
(0.0681632 2.71727e-06 0)
(0.0681081 3.03712e-06 0)
(0.0680476 3.13698e-06 0)
(0.0679862 3.05352e-06 0)
(0.0679271 2.83275e-06 0)
(0.0678729 2.52261e-06 0)
(0.067825 2.16708e-06 0)
(0.0677843 1.80235e-06 0)
(0.0677506 1.45518e-06 0)
(0.0677237 1.14295e-06 0)
(0.0677026 8.74761e-07 0)
(0.0676866 6.53291e-07 0)
(0.0676748 4.76622e-07 0)
(0.0676662 3.40029e-07 0)
(0.06766 2.37412e-07 0)
(0.0676558 1.62356e-07 0)
(0.0676529 1.0882e-07 0)
(0.067651 7.15307e-08 0)
(0.0676498 4.61395e-08 0)
(0.0676489 2.922e-08 0)
(0.0676484 1.81779e-08 0)
(0.0676481 1.11132e-08 0)
(0.0676479 6.68036e-09 0)
(0.0676478 3.94897e-09 0)
(0.0676478 2.29765e-09 0)
(0.0676477 1.31466e-09 0)
(0.0676477 7.41706e-10 0)
(0.0676477 4.10469e-10 0)
(0.0676477 2.25648e-10 0)
(0.0676477 1.19691e-10 0)
(0.0676477 6.50826e-11 0)
(0.0676477 3.14439e-11 0)
(0.0676477 1.9731e-11 0)
(0.0676477 5.40515e-12 0)
(0.0676477 9.02422e-12 0)
(0.0676477 -4.49197e-12 0)
(0.0676477 1.08115e-11 0)
(0.0676477 -1.1614e-11 0)
(0.0676477 1.72527e-11 0)
(0.0676477 -2.1696e-11 0)
(0.0676476 2.94533e-11 0)
(0.0676477 -3.63633e-11 0)
(0.0676476 4.74929e-11 0)
(0.0676477 -5.85811e-11 0)
(0.0676476 7.278e-11 0)
(0.0676477 -8.72385e-11 0)
(0.0676475 1.04632e-10 0)
(0.0676478 -1.21165e-10 0)
(0.0676475 1.38901e-10 0)
(0.0676479 -1.53129e-10 0)
(0.0676473 1.65016e-10 0)
(0.0676481 -1.69306e-10 0)
(0.0676471 1.64158e-10 0)
(0.0676484 -1.43906e-10 0)
(0.0676468 1.03068e-10 0)
(0.0676488 -3.76054e-11 0)
(0.0676463 -6.3633e-11 0)
(0.0676493 2.06582e-10 0)
(0.0676456 -4.03034e-10 0)
(0.0676501 6.6202e-10 0)
(0.0676447 -9.9716e-10 0)
(0.0676512 1.42033e-09 0)
(0.0676435 -1.94549e-09 0)
(0.0676526 2.58457e-09 0)
(0.0676419 -3.35273e-09 0)
(0.0676544 4.26246e-09 0)
(0.0676399 -5.32471e-09 0)
(0.0676566 6.55315e-09 0)
(0.0676375 -7.95228e-09 0)
(0.0676592 9.53516e-09 0)
(0.0676346 -1.12975e-08 0)
(0.0676623 1.32517e-08 0)
(0.0676313 -1.53798e-08 0)
(0.0676658 1.76951e-08 0)
(0.0676276 -2.01631e-08 0)
(0.0676697 2.27997e-08 0)
(0.0676235 -2.55506e-08 0)
(0.067674 2.84375e-08 0)
(0.0676192 -3.13863e-08 0)
(0.0676784 3.44256e-08 0)
(0.0676147 -3.7461e-08 0)
(0.0676829 4.0535e-08 0)
(0.0676101 -4.35307e-08 0)
(0.0676874 4.65081e-08 0)
(0.0676057 -4.93264e-08 0)
(0.0676918 5.20633e-08 0)
(0.0676014 -5.45504e-08 0)
(0.0676959 5.68736e-08 0)
(0.0675975 -5.88217e-08 0)
(0.0676996 6.04723e-08 0)
(0.067594 -6.15499e-08 0)
(0.0677029 6.20955e-08 0)
(0.067591 -6.17516e-08 0)
(0.0677056 6.05118e-08 0)
(0.0675886 -5.79706e-08 0)
(0.0677076 5.41292e-08 0)
(0.067587 -4.86784e-08 0)
(0.0677088 4.1813e-08 0)
(0.0675863 -3.36227e-08 0)
(0.067709 2.47873e-08 0)
(0.0675865 -1.61169e-08 0)
(0.0677084 8.94503e-09 0)
(0.0675874 -4.77112e-09 0)
(0.0677074 5.20839e-09 0)
(0.0675884 -1.16175e-08 0)
(0.0677066 2.47786e-08 0)
(0.0675887 -4.44474e-08 0)
(0.067707 6.93599e-08 0)
(0.0675873 -9.67457e-08 0)
(0.0677093 1.23477e-07 0)
(0.0675843 -1.45379e-07 0)
(0.067713 1.59735e-07 0)
(0.0675803 -1.63814e-07 0)
(0.0677168 1.57941e-07 0)
(0.067577 -1.426e-07 0)
(0.0677193 1.21046e-07 0)
(0.0675755 -9.5485e-08 0)
(0.0677198 6.90966e-08 0)
(0.067576 -4.3035e-08 0)
(0.0677183 1.84776e-08 0)
(0.0675783 4.59249e-09 0)
(0.0677153 -2.55152e-08 0)
(0.0675819 4.33544e-08 0)
(0.0677113 -5.64062e-08 0)
(0.0675861 6.29173e-08 0)
(0.0677071 -6.19706e-08 0)
(0.06759 5.40295e-08 0)
(0.0677038 -4.13985e-08 0)
(0.0675927 2.75611e-08 0)
(0.0677016 -1.6053e-08 0)
(0.0675944 9.29507e-09 0)
(0.0677002 -7.3294e-09 0)
(0.0675957 8.39698e-09 0)
(0.067699 -9.52369e-09 0)
(0.0675969 8.80659e-09 0)
(0.0676978 -5.98982e-09 0)
(0.0675979 2.8588e-09 0)
(0.0676969 -1.14514e-09 0)
(0.0675987 1.57658e-09 0)
(0.0676961 -2.89117e-09 0)
(0.0675995 3.77987e-09 0)
(0.0676953 -3.766e-09 0)
(0.0676003 4.15405e-09 0)
(0.0676945 -5.99558e-09 0)
(0.0676012 9.54117e-09 0)
(0.0676936 -1.39691e-08 0)
(0.0676022 1.95727e-08 0)
(0.0676924 -2.83214e-08 0)
(0.0676037 4.22074e-08 0)
(0.0676906 -7.20084e-08 0)
(0.0676063 1.07204e-07 0)
(0.0676876 -3.10231e-07 0)
(0.0676142 2.90604e-07 0)
(0.0676918 -1.42828e-06 0)
(0.0500298 -0.000208789 0)
(0.0544602 -0.00013039 0)
(0.0540889 -8.85874e-05 0)
(0.0559638 -7.51316e-05 0)
(0.0562477 -5.9548e-05 0)
(0.0571927 -5.42257e-05 0)
(0.057657 -4.85643e-05 0)
(0.0582982 -4.53082e-05 0)
(0.0587774 -4.22981e-05 0)
(0.0592949 -4.00135e-05 0)
(0.0597482 -3.80049e-05 0)
(0.0602013 -3.63043e-05 0)
(0.0606229 -3.48064e-05 0)
(0.0610346 -3.34782e-05 0)
(0.0614273 -3.2287e-05 0)
(0.0618084 -3.12026e-05 0)
(0.0621757 -3.02081e-05 0)
(0.0625322 -2.92836e-05 0)
(0.0628773 -2.84204e-05 0)
(0.0632124 -2.76085e-05 0)
(0.0635376 -2.68413e-05 0)
(0.0638538 -2.61076e-05 0)
(0.0641611 -2.53969e-05 0)
(0.0644597 -2.47018e-05 0)
(0.06475 -2.40243e-05 0)
(0.065032 -2.33756e-05 0)
(0.0653062 -2.27701e-05 0)
(0.0655731 -2.22148e-05 0)
(0.0658334 -2.16995e-05 0)
(0.0660875 -2.11923e-05 0)
(0.0663355 -2.06427e-05 0)
(0.0665767 -1.99918e-05 0)
(0.0668099 -1.9185e-05 0)
(0.0670333 -1.81837e-05 0)
(0.0672445 -1.69706e-05 0)
(0.0674411 -1.55481e-05 0)
(0.0676207 -1.39316e-05 0)
(0.0677811 -1.21419e-05 0)
(0.0679203 -1.02015e-05 0)
(0.0680369 -8.138e-06 0)
(0.0681293 -5.99134e-06 0)
(0.0681967 -3.8215e-06 0)
(0.0682391 -1.7103e-06 0)
(0.068257 2.45395e-07 0)
(0.0682526 1.94814e-06 0)
(0.0682289 3.31725e-06 0)
(0.0681897 4.30335e-06 0)
(0.0681396 4.89562e-06 0)
(0.0680831 5.12062e-06 0)
(0.0680243 5.03418e-06 0)
(0.0679669 4.70948e-06 0)
(0.0679134 4.22487e-06 0)
(0.0678656 3.65368e-06 0)
(0.0678244 3.05751e-06 0)
(0.0677901 2.48287e-06 0)
(0.0677623 1.96083e-06 0)
(0.0677404 1.50863e-06 0)
(0.0677236 1.1324e-06 0)
(0.067711 8.3024e-07 0)
(0.0677018 5.95156e-07 0)
(0.0676953 4.17503e-07 0)
(0.0676907 2.86834e-07 0)
(0.0676875 1.93129e-07 0)
(0.0676854 1.27522e-07 0)
(0.067684 8.26225e-08 0)
(0.0676831 5.25561e-08 0)
(0.0676826 3.2839e-08 0)
(0.0676822 2.01643e-08 0)
(0.067682 1.21739e-08 0)
(0.0676819 7.22798e-09 0)
(0.0676818 4.22369e-09 0)
(0.0676817 2.42763e-09 0)
(0.0676817 1.37548e-09 0)
(0.0676817 7.64981e-10 0)
(0.0676817 4.21887e-10 0)
(0.0676817 2.25378e-10 0)
(0.0676817 1.22746e-10 0)
(0.0676817 6.00413e-11 0)
(0.0676817 3.71123e-11 0)
(0.0676817 1.07073e-11 0)
(0.0676817 1.70246e-11 0)
(0.0676817 -8.25298e-12 0)
(0.0676817 2.04224e-11 0)
(0.0676817 -2.26382e-11 0)
(0.0676817 3.42361e-11 0)
(0.0676817 -4.42889e-11 0)
(0.0676817 6.11074e-11 0)
(0.0676817 -7.81862e-11 0)
(0.0676816 1.04525e-10 0)
(0.0676817 -1.33624e-10 0)
(0.0676816 1.71668e-10 0)
(0.0676818 -2.15112e-10 0)
(0.0676815 2.69728e-10 0)
(0.0676818 -3.30682e-10 0)
(0.0676814 4.03219e-10 0)
(0.067682 -4.81913e-10 0)
(0.0676813 5.71171e-10 0)
(0.0676822 -6.64715e-10 0)
(0.0676811 7.62747e-10 0)
(0.0676824 -8.59223e-10 0)
(0.0676807 9.48746e-10 0)
(0.0676829 -1.02754e-09 0)
(0.0676802 1.08108e-09 0)
(0.0676835 -1.10301e-09 0)
(0.0676795 1.07716e-09 0)
(0.0676843 -9.9104e-10 0)
(0.0676785 8.24266e-10 0)
(0.0676855 -5.59101e-10 0)
(0.0676772 1.72906e-10 0)
(0.0676869 3.54613e-10 0)
(0.0676755 -1.05068e-09 0)
(0.0676888 1.9387e-09 0)
(0.0676734 -3.04114e-09 0)
(0.0676911 4.38717e-09 0)
(0.0676709 -5.99187e-09 0)
(0.0676939 7.88605e-09 0)
(0.0676679 -1.00726e-08 0)
(0.0676971 1.25845e-08 0)
(0.0676645 -1.5405e-08 0)
(0.0677007 1.85696e-08 0)
(0.0676607 -2.20349e-08 0)
(0.0677047 2.58422e-08 0)
(0.0676566 -2.99156e-08 0)
(0.067709 3.43045e-08 0)
(0.0676522 -3.88974e-08 0)
(0.0677134 4.37544e-08 0)
(0.0676476 -4.87265e-08 0)
(0.067718 5.38925e-08 0)
(0.0676431 -5.90605e-08 0)
(0.0677225 6.43341e-08 0)
(0.0676387 -6.94753e-08 0)
(0.0677268 7.46107e-08 0)
(0.0676345 -7.94476e-08 0)
(0.0677308 8.41202e-08 0)
(0.0676307 -8.82573e-08 0)
(0.0677344 9.19705e-08 0)
(0.0676273 -9.47744e-08 0)
(0.0677375 9.67152e-08 0)
(0.0676245 -9.71696e-08 0)
(0.06774 9.61067e-08 0)
(0.0676223 -9.28332e-08 0)
(0.0677419 8.7347e-08 0)
(0.0676209 -7.9146e-08 0)
(0.0677428 6.85811e-08 0)
(0.0676203 -5.5853e-08 0)
(0.0677429 4.21496e-08 0)
(0.0676207 -2.88865e-08 0)
(0.0677422 1.83208e-08 0)
(0.0676216 -1.29526e-08 0)
(0.0677411 1.54055e-08 0)
(0.0676226 -2.78035e-08 0)
(0.0677405 5.12476e-08 0)
(0.0676228 -8.50729e-08 0)
(0.0677411 1.26964e-07 0)
(0.0676213 -1.72143e-07 0)
(0.0677434 2.15428e-07 0)
(0.0676183 -2.50037e-07 0)
(0.0677469 2.71801e-07 0)
(0.0676146 -2.76614e-07 0)
(0.0677503 2.65412e-07 0)
(0.0676118 -2.39289e-07 0)
(0.0677523 2.03665e-07 0)
(0.0676108 -1.62072e-07 0)
(0.0677523 1.19425e-07 0)
(0.0676117 -7.73595e-08 0)
(0.0677506 3.75761e-08 0)
(0.0676142 -4.59565e-11 0)
(0.0677474 -3.40559e-08 0)
(0.0676178 6.30078e-08 0)
(0.0677434 -8.39287e-08 0)
(0.067622 9.3986e-08 0)
(0.0677393 -9.1881e-08 0)
(0.0676257 7.8642e-08 0)
(0.0677362 -5.82431e-08 0)
(0.0676282 3.64257e-08 0)
(0.0677342 -1.87899e-08 0)
(0.0676298 8.96397e-09 0)
(0.0677329 -6.66298e-09 0)
(0.067631 8.8156e-09 0)
(0.0677316 -1.06257e-08 0)
(0.0676322 9.26339e-09 0)
(0.0677305 -4.61808e-09 0)
(0.0676332 -2.68887e-10 0)
(0.0677297 2.71103e-09 0)
(0.0676339 -1.78353e-09 0)
(0.067729 -3.0869e-10 0)
(0.0676347 1.53e-09 0)
(0.0677283 -1.31245e-09 0)
(0.0676353 1.85955e-09 0)
(0.0677276 -4.725e-09 0)
(0.067636 1.01037e-08 0)
(0.0677269 -1.65666e-08 0)
(0.0676369 2.45858e-08 0)
(0.067726 -3.70779e-08 0)
(0.0676379 5.63939e-08 0)
(0.0677248 -9.77623e-08 0)
(0.0676393 1.37141e-07 0)
(0.0677239 -4.09167e-07 0)
(0.0676431 1.4949e-07 0)
(0.0677353 -2.88687e-06 0)
(0.0500294 -0.00029403 0)
(0.054468 -0.000180029 0)
(0.0540958 -0.000125616 0)
(0.0559703 -0.000104289 0)
(0.0562543 -8.38748e-05 0)
(0.0571993 -7.56511e-05 0)
(0.0576636 -6.81433e-05 0)
(0.058305 -6.33545e-05 0)
(0.0587843 -5.92673e-05 0)
(0.0593019 -5.59979e-05 0)
(0.0597553 -5.32248e-05 0)
(0.0602084 -5.08199e-05 0)
(0.06063 -4.87326e-05 0)
(0.0610416 -4.68614e-05 0)
(0.0614339 -4.51919e-05 0)
(0.0618147 -4.36638e-05 0)
(0.0621813 -4.22644e-05 0)
(0.0625368 -4.09597e-05 0)
(0.0628807 -3.97409e-05 0)
(0.0632143 -3.85924e-05 0)
(0.0635378 -3.75066e-05 0)
(0.0638518 -3.6468e-05 0)
(0.0641567 -3.54628e-05 0)
(0.0644527 -3.448e-05 0)
(0.0647401 -3.35214e-05 0)
(0.0650189 -3.26013e-05 0)
(0.0652897 -3.17398e-05 0)
(0.0655529 -3.09481e-05 0)
(0.0658092 -3.02151e-05 0)
(0.066059 -2.95002e-05 0)
(0.0663026 -2.87366e-05 0)
(0.0665395 -2.78442e-05 0)
(0.0667686 -2.67468e-05 0)
(0.0669883 -2.53884e-05 0)
(0.0671965 -2.37417e-05 0)
(0.0673909 -2.18067e-05 0)
(0.0675691 -1.9603e-05 0)
(0.0677291 -1.71586e-05 0)
(0.067869 -1.45048e-05 0)
(0.0679873 -1.16784e-05 0)
(0.0680826 -8.73176e-06 0)
(0.068154 -5.74294e-06 0)
(0.0682014 -2.81981e-06 0)
(0.0682252 -9.23485e-08 0)
(0.0682271 2.30568e-06 0)
(0.0682097 4.26009e-06 0)
(0.0681765 5.69687e-06 0)
(0.0681318 6.5936e-06 0)
(0.0680799 6.97951e-06 0)
(0.0680248 6.92564e-06 0)
(0.06797 6.52924e-06 0)
(0.0679184 5.89701e-06 0)
(0.0678717 5.13079e-06 0)
(0.0678311 4.31761e-06 0)
(0.0677969 3.52448e-06 0)
(0.067769 2.79721e-06 0)
(0.0677469 2.16232e-06 0)
(0.0677298 1.63046e-06 0)
(0.0677169 1.20069e-06 0)
(0.0677074 8.64419e-07 0)
(0.0677006 6.08951e-07 0)
(0.0676958 4.20097e-07 0)
(0.0676924 2.84011e-07 0)
(0.0676902 1.88288e-07 0)
(0.0676887 1.2248e-07 0)
(0.0676877 7.82187e-08 0)
(0.0676871 4.90665e-08 0)
(0.0676867 3.0247e-08 0)
(0.0676865 1.83328e-08 0)
(0.0676864 1.09275e-08 0)
(0.0676863 6.41046e-09 0)
(0.0676862 3.69939e-09 0)
(0.0676862 2.10411e-09 0)
(0.0676862 1.17547e-09 0)
(0.0676862 6.50079e-10 0)
(0.0676862 3.498e-10 0)
(0.0676862 1.90103e-10 0)
(0.0676862 9.51863e-11 0)
(0.0676862 5.62124e-11 0)
(0.0676862 1.95487e-11 0)
(0.0676862 2.3111e-11 0)
(0.0676862 -7.48008e-12 0)
(0.0676862 2.45048e-11 0)
(0.0676862 -2.55559e-11 0)
(0.0676861 4.01828e-11 0)
(0.0676862 -5.16752e-11 0)
(0.0676861 7.217e-11 0)
(0.0676862 -9.24075e-11 0)
(0.0676861 1.24809e-10 0)
(0.0676862 -1.60354e-10 0)
(0.0676861 2.07704e-10 0)
(0.0676863 -2.62063e-10 0)
(0.067686 3.31525e-10 0)
(0.0676863 -4.09691e-10 0)
(0.0676859 5.0422e-10 0)
(0.0676865 -6.08283e-10 0)
(0.0676858 7.288e-10 0)
(0.0676867 -8.57702e-10 0)
(0.0676855 9.96802e-10 0)
(0.067687 -1.13921e-09 0)
(0.0676851 1.27929e-09 0)
(0.0676874 -1.41318e-09 0)
(0.0676846 1.52351e-09 0)
(0.0676881 -1.60363e-09 0)
(0.0676838 1.63386e-09 0)
(0.067689 -1.59915e-09 0)
(0.0676828 1.47396e-09 0)
(0.0676902 -1.23651e-09 0)
(0.0676814 8.57564e-10 0)
(0.0676917 -3.10977e-10 0)
(0.0676797 -4.39602e-10 0)
(0.0676937 1.42573e-09 0)
(0.0676775 -2.67778e-09 0)
(0.0676961 4.23747e-09 0)
(0.0676749 -6.12666e-09 0)
(0.0676989 8.39119e-09 0)
(0.0676718 -1.10376e-08 0)
(0.0677022 1.4117e-08 0)
(0.0676682 -1.76113e-08 0)
(0.067706 2.15768e-08 0)
(0.0676643 -2.59595e-08 0)
(0.0677101 3.08264e-08 0)
(0.0676601 -3.60791e-08 0)
(0.0677144 4.17967e-08 0)
(0.0676556 -4.7831e-08 0)
(0.067719 5.42768e-08 0)
(0.067651 -6.09327e-08 0)
(0.0677235 6.79184e-08 0)
(0.0676465 -7.49696e-08 0)
(0.067728 8.22392e-08 0)
(0.0676421 -8.93948e-08 0)
(0.0677323 9.66173e-08 0)
(0.067638 -1.03492e-07 0)
(0.0677362 1.10206e-07 0)
(0.0676343 -1.1623e-07 0)
(0.0677397 1.21711e-07 0)
(0.067631 -1.25957e-07 0)
(0.0677427 1.2902e-07 0)
(0.0676284 -1.30018e-07 0)
(0.067745 1.289e-07 0)
(0.0676264 -1.24699e-07 0)
(0.0677467 1.17427e-07 0)
(0.0676251 -1.06418e-07 0)
(0.0677475 9.22069e-08 0)
(0.0676248 -7.51445e-08 0)
(0.0677474 5.69508e-08 0)
(0.0676252 -3.96652e-08 0)
(0.0677466 2.64483e-08 0)
(0.0676263 -2.07445e-08 0)
(0.0677455 2.60837e-08 0)
(0.0676272 -4.51991e-08 0)
(0.0677449 7.93428e-08 0)
(0.0676273 -1.27252e-07 0)
(0.0677456 1.85453e-07 0)
(0.0676258 -2.47133e-07 0)
(0.0677478 3.0517e-07 0)
(0.067623 -3.50405e-07 0)
(0.067751 3.77531e-07 0)
(0.0676197 -3.81419e-07 0)
(0.0677539 3.63845e-07 0)
(0.0676175 -3.26677e-07 0)
(0.0677553 2.77401e-07 0)
(0.0676169 -2.20741e-07 0)
(0.067755 1.63054e-07 0)
(0.0676181 -1.06285e-07 0)
(0.067753 5.25191e-08 0)
(0.0676208 -1.74066e-09 0)
(0.0677497 -4.43163e-08 0)
(0.0676245 8.30984e-08 0)
(0.0677457 -1.10602e-07 0)
(0.0676286 1.23073e-07 0)
(0.0677418 -1.19023e-07 0)
(0.0676321 1.00214e-07 0)
(0.0677388 -7.23039e-08 0)
(0.0676345 4.31637e-08 0)
(0.067737 -2.0188e-08 0)
(0.0676359 7.92462e-09 0)
(0.0677357 -5.57385e-09 0)
(0.0676371 8.73881e-09 0)
(0.0677345 -1.09721e-08 0)
(0.0676383 8.7428e-09 0)
(0.0677335 -2.23172e-09 0)
(0.0676392 -4.30312e-09 0)
(0.0677327 7.38545e-09 0)
(0.0676398 -6.04974e-09 0)
(0.0677321 3.44664e-09 0)
(0.0676405 -2.22297e-09 0)
(0.0677315 2.93823e-09 0)
(0.0676411 -2.54248e-09 0)
(0.0677309 -8.60523e-10 0)
(0.0676416 7.27957e-09 0)
(0.0677304 -1.46235e-08 0)
(0.0676421 2.34277e-08 0)
(0.0677299 -3.71453e-08 0)
(0.0676426 5.76466e-08 0)
(0.0677295 -1.02994e-07 0)
(0.0676429 1.33116e-07 0)
(0.0677303 -4.53158e-07 0)
(0.0676443 -5.40716e-08 0)
(0.0677427 -4.52261e-06 0)
(0.050029 -0.00037935 0)
(0.0544789 -0.000230009 0)
(0.0541053 -0.000162478 0)
(0.0559793 -0.000133516 0)
(0.0562633 -0.000108152 0)
(0.0572081 -9.70997e-05 0)
(0.0576726 -8.77105e-05 0)
(0.058314 -8.14104e-05 0)
(0.0587934 -7.62356e-05 0)
(0.0593112 -7.19877e-05 0)
(0.0597647 -6.84455e-05 0)
(0.0602178 -6.5336e-05 0)
(0.0606394 -6.26544e-05 0)
(0.0610507 -6.02357e-05 0)
(0.0614426 -5.80806e-05 0)
(0.0618225 -5.6101e-05 0)
(0.0621881 -5.4287e-05 0)
(0.0625421 -5.25919e-05 0)
(0.0628842 -5.10065e-05 0)
(0.0632156 -4.95098e-05 0)
(0.0635364 -4.80935e-05 0)
(0.0638474 -4.67384e-05 0)
(0.0641489 -4.54278e-05 0)
(0.0644411 -4.41469e-05 0)
(0.0647243 -4.28975e-05 0)
(0.0649987 -4.16963e-05 0)
(0.0652647 -4.05688e-05 0)
(0.0655228 -3.95306e-05 0)
(0.0657737 -3.85703e-05 0)
(0.0660178 -3.76403e-05 0)
(0.0662555 -3.66593e-05 0)
(0.0664865 -3.55276e-05 0)
(0.0667098 -3.41485e-05 0)
(0.066924 -3.24486e-05 0)
(0.0671271 -3.03895e-05 0)
(0.0673171 -2.79681e-05 0)
(0.0674917 -2.5207e-05 0)
(0.0676491 -2.2141e-05 0)
(0.0677874 -1.88097e-05 0)
(0.0679052 -1.52591e-05 0)
(0.0680013 -1.15524e-05 0)
(0.0680748 -7.78373e-06 0)
(0.0681254 -4.08345e-06 0)
(0.0681536 -6.11057e-07 0)
(0.0681606 2.46632e-06 0)
(0.0681489 5.00243e-06 0)
(0.0681216 6.89819e-06 0)
(0.0680824 8.11752e-06 0)
(0.0680355 8.68919e-06 0)
(0.0679848 8.69601e-06 0)
(0.0679337 8.25612e-06 0)
(0.0678848 7.50219e-06 0)
(0.0678403 6.56304e-06 0)
(0.0678012 5.55049e-06 0)
(0.067768 4.55198e-06 0)
(0.0677407 3.62859e-06 0)
(0.0677189 2.81676e-06 0)
(0.0677019 2.13251e-06 0)
(0.0676891 1.57655e-06 0)
(0.0676795 1.13934e-06 0)
(0.0676726 8.05617e-07 0)
(0.0676678 5.57809e-07 0)
(0.0676644 3.78477e-07 0)
(0.0676621 2.51812e-07 0)
(0.0676606 1.64383e-07 0)
(0.0676596 1.05348e-07 0)
(0.0676589 6.63157e-08 0)
(0.0676585 4.1023e-08 0)
(0.0676583 2.49508e-08 0)
(0.0676581 1.49244e-08 0)
(0.067658 8.78568e-09 0)
(0.067658 5.08824e-09 0)
(0.0676579 2.90401e-09 0)
(0.0676579 1.62876e-09 0)
(0.0676579 9.03133e-10 0)
(0.0676579 4.89047e-10 0)
(0.0676579 2.65216e-10 0)
(0.0676579 1.35708e-10 0)
(0.0676579 7.6734e-11 0)
(0.0676579 3.14058e-11 0)
(0.0676579 2.75281e-11 0)
(0.0676579 -2.80834e-12 0)
(0.0676579 2.37837e-11 0)
(0.0676579 -2.13852e-11 0)
(0.0676579 3.63998e-11 0)
(0.0676579 -4.55949e-11 0)
(0.0676579 6.48908e-11 0)
(0.0676579 -8.19176e-11 0)
(0.0676578 1.12012e-10 0)
(0.0676579 -1.43349e-10 0)
(0.0676578 1.86511e-10 0)
(0.067658 -2.34906e-10 0)
(0.0676577 2.98142e-10 0)
(0.0676581 -3.67764e-10 0)
(0.0676576 4.52988e-10 0)
(0.0676582 -5.44871e-10 0)
(0.0676575 6.52008e-10 0)
(0.0676584 -7.63765e-10 0)
(0.0676572 8.82972e-10 0)
(0.0676588 -1.00123e-09 0)
(0.0676568 1.1122e-09 0)
(0.0676592 -1.21154e-09 0)
(0.0676562 1.27923e-09 0)
(0.0676599 -1.30827e-09 0)
(0.0676554 1.27617e-09 0)
(0.0676609 -1.16597e-09 0)
(0.0676543 9.48505e-10 0)
(0.0676621 -5.99399e-10 0)
(0.0676529 8.49221e-11 0)
(0.0676637 6.24631e-10 0)
(0.0676511 -1.57163e-09 0)
(0.0676658 2.79318e-09 0)
(0.0676488 -4.32371e-09 0)
(0.0676683 6.2145e-09 0)
(0.0676461 -8.48989e-09 0)
(0.0676712 1.12079e-08 0)
(0.0676429 -1.43745e-08 0)
(0.0676746 1.80564e-08 0)
(0.0676393 -2.22304e-08 0)
(0.0676785 2.69722e-08 0)
(0.0676352 -3.22142e-08 0)
(0.0676827 3.80491e-08 0)
(0.0676309 -4.43539e-08 0)
(0.0676871 5.12397e-08 0)
(0.0676263 -5.85203e-08 0)
(0.0676917 6.63295e-08 0)
(0.0676217 -7.44134e-08 0)
(0.0676963 8.29379e-08 0)
(0.0676172 -9.15683e-08 0)
(0.0677008 1.00512e-07 0)
(0.0676128 -1.09347e-07 0)
(0.0677051 1.18311e-07 0)
(0.0676087 -1.26875e-07 0)
(0.0677089 1.35279e-07 0)
(0.0676051 -1.42844e-07 0)
(0.0677123 1.49756e-07 0)
(0.067602 -1.5512e-07 0)
(0.0677151 1.59002e-07 0)
(0.0675995 -1.60269e-07 0)
(0.0677173 1.5886e-07 0)
(0.0675976 -1.53555e-07 0)
(0.0677188 1.44393e-07 0)
(0.0675966 -1.30575e-07 0)
(0.0677194 1.12837e-07 0)
(0.0675964 -9.17065e-08 0)
(0.0677192 6.94378e-08 0)
(0.067597 -4.86854e-08 0)
(0.0677183 3.34661e-08 0)
(0.067598 -2.80891e-08 0)
(0.0677172 3.68755e-08 0)
(0.067599 -6.30242e-08 0)
(0.0677166 1.07803e-07 0)
(0.067599 -1.69236e-07 0)
(0.0677172 2.42662e-07 0)
(0.0675977 -3.19289e-07 0)
(0.0677192 3.90224e-07 0)
(0.0675951 -4.44201e-07 0)
(0.067722 4.7505e-07 0)
(0.0675924 -4.76913e-07 0)
(0.0677244 4.52529e-07 0)
(0.0675907 -4.04609e-07 0)
(0.0677253 3.42526e-07 0)
(0.0675906 -2.72036e-07 0)
(0.0677245 2.00666e-07 0)
(0.0675921 -1.30551e-07 0)
(0.0677223 6.40643e-08 0)
(0.067595 -1.24583e-09 0)
(0.067719 -5.55775e-08 0)
(0.0675987 1.03017e-07 0)
(0.067715 -1.36021e-07 0)
(0.0676026 1.50068e-07 0)
(0.0677113 -1.43615e-07 0)
(0.067606 1.19242e-07 0)
(0.0677085 -8.42314e-08 0)
(0.0676082 4.84104e-08 0)
(0.0677067 -2.07233e-08 0)
(0.0676096 6.42789e-09 0)
(0.0677055 -4.12323e-09 0)
(0.0676108 8.14493e-09 0)
(0.0677044 -1.05683e-08 0)
(0.0676119 7.32463e-09 0)
(0.0677034 1.05236e-09 0)
(0.0676127 -9.17258e-09 0)
(0.0677027 1.29089e-08 0)
(0.0676133 -1.13442e-08 0)
(0.0677021 8.53245e-09 0)
(0.0676139 -7.63705e-09 0)
(0.0677016 9.16778e-09 0)
(0.0676143 -9.31168e-09 0)
(0.0677012 5.95859e-09 0)
(0.0676146 6.36238e-10 0)
(0.0677009 -7.68623e-09 0)
(0.0676149 1.56852e-08 0)
(0.0677008 -2.83249e-08 0)
(0.0676148 4.65844e-08 0)
(0.0677011 -9.09113e-08 0)
(0.0676143 1.06209e-07 0)
(0.0677029 -4.73617e-07 0)
(0.0676149 -2.41481e-07 0)
(0.0677139 -6.20237e-06 0)
(0.0500285 -0.000464861 0)
(0.0544927 -0.000280156 0)
(0.0541175 -0.000199307 0)
(0.0559906 -0.000162742 0)
(0.0562746 -0.000132422 0)
(0.0572192 -0.000118552 0)
(0.0576838 -0.00010728 0)
(0.0583254 -9.94721e-05 0)
(0.058805 -9.32089e-05 0)
(0.0593229 -8.79824e-05 0)
(0.0597765 -8.36685e-05 0)
(0.0602296 -7.98505e-05 0)
(0.0606509 -7.65685e-05 0)
(0.0610618 -7.3594e-05 0)
(0.0614528 -7.09432e-05 0)
(0.0618315 -6.85003e-05 0)
(0.0621954 -6.62586e-05 0)
(0.0625473 -6.41588e-05 0)
(0.0628867 -6.2192e-05 0)
(0.0632149 -6.03318e-05 0)
(0.0635321 -5.85697e-05 0)
(0.0638389 -5.68833e-05 0)
(0.0641357 -5.52529e-05 0)
(0.0644228 -5.3661e-05 0)
(0.0647005 -5.21085e-05 0)
(0.064969 -5.06147e-05 0)
(0.0652287 -4.92099e-05 0)
(0.0654802 -4.79138e-05 0)
(0.0657241 -4.67158e-05 0)
(0.065961 -4.55619e-05 0)
(0.0661912 -4.43579e-05 0)
(0.0664145 -4.2986e-05 0)
(0.0666302 -4.13302e-05 0)
(0.066837 -3.93002e-05 0)
(0.0670332 -3.68465e-05 0)
(0.0672167 -3.39621e-05 0)
(0.0673857 -3.06715e-05 0)
(0.0675383 -2.70161e-05 0)
(0.0676729 -2.30438e-05 0)
(0.0677882 -1.88091e-05 0)
(0.067883 -1.43857e-05 0)
(0.0679567 -9.88148e-06 0)
(0.0680088 -5.4465e-06 0)
(0.0680399 -1.26614e-06 0)
(0.0680509 2.46245e-06 0)
(0.0680441 5.56328e-06 0)
(0.0680221 7.91294e-06 0)
(0.0679885 9.4608e-06 0)
(0.067947 1.0233e-05 0)
(0.0679012 1.03212e-05 0)
(0.0678543 9.8615e-06 0)
(0.0678092 9.0099e-06 0)
(0.0677676 7.92028e-06 0)
(0.0677308 6.72795e-06 0)
(0.0676993 5.54028e-06 0)
(0.0676733 4.43348e-06 0)
(0.0676524 3.45423e-06 0)
(0.0676361 2.62438e-06 0)
(0.0676236 1.94681e-06 0)
(0.0676143 1.41161e-06 0)
(0.0676076 1.00139e-06 0)
(0.0676028 6.95588e-07 0)
(0.0675994 4.73452e-07 0)
(0.0675972 3.15987e-07 0)
(0.0675956 2.06915e-07 0)
(0.0675946 1.33014e-07 0)
(0.067594 8.39886e-08 0)
(0.0675936 5.21146e-08 0)
(0.0675933 3.17939e-08 0)
(0.0675932 1.9076e-08 0)
(0.0675931 1.12641e-08 0)
(0.067593 6.54407e-09 0)
(0.067593 3.74622e-09 0)
(0.067593 2.10838e-09 0)
(0.067593 1.17193e-09 0)
(0.067593 6.37982e-10 0)
(0.067593 3.45483e-10 0)
(0.067593 1.79952e-10 0)
(0.067593 9.82224e-11 0)
(0.067593 4.54529e-11 0)
(0.067593 3.07007e-11 0)
(0.067593 4.73305e-12 0)
(0.0675929 1.95002e-11 0)
(0.067593 -1.19352e-11 0)
(0.0675929 2.5333e-11 0)
(0.067593 -2.94107e-11 0)
(0.0675929 4.37892e-11 0)
(0.067593 -5.27503e-11 0)
(0.0675929 7.4137e-11 0)
(0.067593 -9.3099e-11 0)
(0.0675929 1.2166e-10 0)
(0.0675931 -1.51039e-10 0)
(0.0675928 1.91698e-10 0)
(0.0675932 -2.32755e-10 0)
(0.0675927 2.84227e-10 0)
(0.0675933 -3.3455e-10 0)
(0.0675925 3.93248e-10 0)
(0.0675935 -4.46563e-10 0)
(0.0675922 4.97791e-10 0)
(0.0675939 -5.36477e-10 0)
(0.0675918 5.55227e-10 0)
(0.0675944 -5.48867e-10 0)
(0.0675912 4.94874e-10 0)
(0.0675951 -3.85842e-10 0)
(0.0675904 1.97077e-10 0)
(0.0675961 8.97331e-11 0)