/*--------------------------------*- C++ -*----------------------------------*\
| =========                 |                                                 |
| \\      /  F ield         | OpenFOAM: The Open Source CFD Toolbox           |
|  \\    /   O peration     | Version:  2412                                  |
|   \\  /    A nd           | Website:  www.openfoam.com                      |
|    \\/     M anipulation  |                                                 |
\*---------------------------------------------------------------------------*/
FoamFile
{
    version     2.0;
    format      ascii;
    arch        "LSB;label=32;scalar=64";
    class       volScalarField;
    location    "783";
    object      p;
}
// * * * * * * * * * * * * * * * * * * * * * * * * * * * * * * * * * * * * * //

dimensions      [0 2 -2 0 0 0 0];

internalField   nonuniform List<scalar> 
8000
(
0.00307205
0.0028374
0.00285924
0.00275521
0.00274005
0.00268639
0.00266017
0.00262316
0.00259545
0.00256513
0.00253847
0.00251156
0.0024864
0.00246162
0.00243786
0.00241461
0.00239207
0.00237002
0.00234852
0.00232744
0.00230682
0.00228658
0.00226672
0.00224719
0.002228
0.0022091
0.00219049
0.00217213
0.00215405
0.00213619
0.00211856
0.00210115
0.00208395
0.00206693
0.00205011
0.00203346
0.00201699
0.00200067
0.00198452
0.00196851
0.00195265
0.00193692
0.00192133
0.00190587
0.00189053
0.00187531
0.00186021
0.00184521
0.00183033
0.00181554
0.00180087
0.00178628
0.00177179
0.00175739
0.00174308
0.00172885
0.00171471
0.00170064
0.00168666
0.00167274
0.00165891
0.00164514
0.00163144
0.00161781
0.00160425
0.00159074
0.0015773
0.00156392
0.0015506
0.00153733
0.00152412
0.00151096
0.00149786
0.0014848
0.00147179
0.00145883
0.00144592
0.00143305
0.00142023
0.00140745
0.00139471
0.00138201
0.00136935
0.00135673
0.00134414
0.00133159
0.00131908
0.0013066
0.00129416
0.00128174
0.00126936
0.00125701
0.00124469
0.0012324
0.00122014
0.0012079
0.00119569
0.00118351
0.00117136
0.00115922
0.00114712
0.00113503
0.00112297
0.00111093
0.00109891
0.00108691
0.00107494
0.00106298
0.00105105
0.00103913
0.00102723
0.00101534
0.00100348
0.000991631
0.000979802
0.000967985
0.000956187
0.0009444
0.000932632
0.000920875
0.000909135
0.000897406
0.000885692
0.000873989
0.000862301
0.000850622
0.000838958
0.000827303
0.000815662
0.000804028
0.000792408
0.000780796
0.000769196
0.000757604
0.000746023
0.00073445
0.000722887
0.000711331
0.000699786
0.000688247
0.000676719
0.000665195
0.000653682
0.000642174
0.000630675
0.000619181
0.000607696
0.000596214
0.000584742
0.000573274
0.000561814
0.000550357
0.000538909
0.000527464
0.000516028
0.000504594
0.000493168
0.000481745
0.00047033
0.000458917
0.000447512
0.000436108
0.000424712
0.000413316
0.000401926
0.000390537
0.000379153
0.000367769
0.000356389
0.00034501
0.000333635
0.000322261
0.000310891
0.000299523
0.000288161
0.000276801
0.000265449
0.000254099
0.000242758
0.000231421
0.000220094
0.00020877
0.000197456
0.000186145
0.000174844
0.000163544
0.000152254
0.000140965
0.000129681
0.0001184
0.00010712
9.58446e-05
8.45682e-05
7.32934e-05
6.20194e-05
5.07443e-05
3.94694e-05
2.81946e-05
1.69149e-05
5.63986e-06
0.00307215
0.00283739
0.00285919
0.00275521
0.00274003
0.00268639
0.00266016
0.00262316
0.00259544
0.00256513
0.00253847
0.00251156
0.00248639
0.00246162
0.00243786
0.00241461
0.00239207
0.00237002
0.00234852
0.00232744
0.00230682
0.00228658
0.00226672
0.00224719
0.002228
0.00220909
0.00219049
0.00217213
0.00215405
0.00213619
0.00211856
0.00210115
0.00208395
0.00206693
0.00205011
0.00203346
0.00201699
0.00200067
0.00198452
0.00196851
0.00195265
0.00193692
0.00192133
0.00190587
0.00189053
0.00187531
0.00186021
0.00184521
0.00183033
0.00181554
0.00180087
0.00178628
0.00177179
0.00175739
0.00174308
0.00172885
0.00171471
0.00170064
0.00168666
0.00167274
0.00165891
0.00164514
0.00163144
0.00161781
0.00160425
0.00159074
0.0015773
0.00156392
0.0015506
0.00153733
0.00152412
0.00151096
0.00149786
0.0014848
0.00147179
0.00145883
0.00144592
0.00143305
0.00142023
0.00140745
0.00139471
0.00138201
0.00136935
0.00135673
0.00134414
0.00133159
0.00131908
0.0013066
0.00129416
0.00128174
0.00126936
0.00125701
0.00124469
0.0012324
0.00122014
0.0012079
0.00119569
0.00118351
0.00117136
0.00115922
0.00114712
0.00113503
0.00112297
0.00111093
0.00109891
0.00108691
0.00107494
0.00106298
0.00105105
0.00103913
0.00102723
0.00101534
0.00100348
0.000991631
0.000979802
0.000967985
0.000956187
0.0009444
0.000932632
0.000920875
0.000909135
0.000897406
0.000885692
0.000873989
0.000862301
0.000850622
0.000838958
0.000827303
0.000815661
0.000804028
0.000792408
0.000780796
0.000769196
0.000757604
0.000746023
0.00073445
0.000722887
0.000711331
0.000699786
0.000688247
0.000676719
0.000665195
0.000653682
0.000642174
0.000630675
0.000619181
0.000607696
0.000596214
0.000584742
0.000573274
0.000561814
0.000550357
0.000538909
0.000527464
0.000516028
0.000504594
0.000493168
0.000481745
0.00047033
0.000458917
0.000447512
0.000436108
0.000424712
0.000413316
0.000401926
0.000390537
0.000379153
0.000367769
0.000356389
0.00034501
0.000333635
0.000322261
0.000310891
0.000299523
0.000288161
0.000276801
0.000265448
0.000254099
0.000242758
0.000231421
0.000220094
0.00020877
0.000197456
0.000186145
0.000174844
0.000163544
0.000152254
0.000140964
0.000129681
0.0001184
0.00010712
9.58446e-05
8.45682e-05
7.32934e-05
6.20194e-05
5.07443e-05
3.94694e-05
2.81947e-05
1.69149e-05
5.63985e-06
0.00307235
0.0028373
0.00285915
0.00275519
0.00274001
0.00268638
0.00266016
0.00262315
0.00259544
0.00256513
0.00253846
0.00251156
0.00248639
0.00246161
0.00243786
0.00241461
0.00239207
0.00237002
0.00234851
0.00232744
0.00230682
0.00228658
0.00226672
0.00224719
0.002228
0.00220909
0.00219049
0.00217213
0.00215404
0.00213619
0.00211856
0.00210115
0.00208394
0.00206693
0.00205011
0.00203346
0.00201699
0.00200067
0.00198452
0.00196851
0.00195265
0.00193692
0.00192133
0.00190587
0.00189053
0.00187531
0.00186021
0.00184521
0.00183033
0.00181554
0.00180087
0.00178628
0.00177179
0.00175739
0.00174308
0.00172885
0.00171471
0.00170064
0.00168666
0.00167274
0.00165891
0.00164514
0.00163144
0.00161781
0.00160425
0.00159074
0.0015773
0.00156392
0.0015506
0.00153733
0.00152412
0.00151096
0.00149786
0.0014848
0.00147179
0.00145883
0.00144592
0.00143305
0.00142023
0.00140745
0.00139471
0.00138201
0.00136935
0.00135673
0.00134414
0.00133159
0.00131908
0.0013066
0.00129416
0.00128174
0.00126936
0.00125701
0.00124469
0.0012324
0.00122014
0.0012079
0.00119569
0.00118351
0.00117136
0.00115922
0.00114712
0.00113503
0.00112297
0.00111093
0.00109891
0.00108691
0.00107494
0.00106298
0.00105105
0.00103913
0.00102723
0.00101534
0.00100348
0.000991631
0.000979802
0.000967985
0.000956187
0.0009444
0.000932632
0.000920875
0.000909135
0.000897406
0.000885692
0.000873989
0.000862301
0.000850622
0.000838958
0.000827303
0.000815661
0.000804028
0.000792408
0.000780796
0.000769196
0.000757604
0.000746023
0.00073445
0.000722887
0.000711331
0.000699786
0.000688247
0.000676719
0.000665195
0.000653682
0.000642174
0.000630675
0.000619181
0.000607696
0.000596214
0.000584742
0.000573274
0.000561814
0.000550357
0.000538909
0.000527464
0.000516028
0.000504594
0.000493168
0.000481745
0.00047033
0.000458917
0.000447512
0.000436108
0.000424712
0.000413316
0.000401926
0.000390537
0.000379153
0.000367769
0.000356389
0.00034501
0.000333635
0.000322261
0.000310891
0.000299523
0.000288161
0.000276801
0.000265448
0.000254099
0.000242758
0.000231421
0.000220094
0.00020877
0.000197456
0.000186145
0.000174844
0.000163544
0.000152254
0.000140964
0.000129681
0.0001184
0.00010712
9.58446e-05
8.45682e-05
7.32934e-05
6.20194e-05
5.07443e-05
3.94694e-05
2.81947e-05
1.69149e-05
5.63986e-06
0.00307267
0.00283716
0.00285908
0.00275516
0.00273999
0.00268637
0.00266014
0.00262314
0.00259543
0.00256512
0.00253846
0.00251155
0.00248639
0.00246161
0.00243785
0.00241461
0.00239207
0.00237001
0.00234851
0.00232744
0.00230682
0.00228658
0.00226672
0.00224719
0.002228
0.00220909
0.00219048
0.00217213
0.00215404
0.00213618
0.00211856
0.00210115
0.00208394
0.00206693
0.00205011
0.00203346
0.00201698
0.00200067
0.00198452
0.00196851
0.00195265
0.00193692
0.00192133
0.00190587
0.00189053
0.00187531
0.00186021
0.00184521
0.00183033
0.00181554
0.00180086
0.00178628
0.00177179
0.00175739
0.00174308
0.00172885
0.00171471
0.00170064
0.00168665
0.00167274
0.00165891
0.00164514
0.00163144
0.00161781
0.00160425
0.00159074
0.0015773
0.00156392
0.0015506
0.00153733
0.00152412
0.00151096
0.00149786
0.0014848
0.00147179
0.00145883
0.00144592
0.00143305
0.00142023
0.00140745
0.00139471
0.00138201
0.00136935
0.00135673
0.00134414
0.00133159
0.00131908
0.0013066
0.00129416
0.00128174
0.00126936
0.00125701
0.00124469
0.0012324
0.00122014
0.0012079
0.00119569
0.00118351
0.00117136
0.00115922
0.00114712
0.00113503
0.00112297
0.00111093
0.00109891
0.00108691
0.00107494
0.00106298
0.00105105
0.00103913
0.00102723
0.00101534
0.00100348
0.000991631
0.000979802
0.000967985
0.000956187
0.0009444
0.000932632
0.000920875
0.000909135
0.000897405
0.000885692
0.000873989
0.000862301
0.000850622
0.000838958
0.000827303
0.000815661
0.000804028
0.000792408
0.000780796
0.000769196
0.000757604
0.000746023
0.00073445
0.000722887
0.000711331
0.000699786
0.000688247
0.000676719
0.000665195
0.000653682
0.000642174
0.000630675
0.000619181
0.000607696
0.000596214
0.000584742
0.000573274
0.000561814
0.000550357
0.000538909
0.000527464
0.000516028
0.000504594
0.000493168
0.000481745
0.00047033
0.000458917
0.000447512
0.000436108
0.000424712
0.000413316
0.000401926
0.000390537
0.000379153
0.000367769
0.000356389
0.00034501
0.000333635
0.000322261
0.000310891
0.000299523
0.000288161
0.000276801
0.000265448
0.000254099
0.000242758
0.000231421
0.000220094
0.00020877
0.000197456
0.000186145
0.000174844
0.000163544
0.000152254
0.000140964
0.000129681
0.0001184
0.00010712
9.58445e-05
8.45682e-05
7.32934e-05
6.20194e-05
5.07443e-05
3.94694e-05
2.81947e-05
1.6915e-05
5.63992e-06
0.00307309
0.00283698
0.002859
0.00275511
0.00273996
0.00268635
0.00266013
0.00262313
0.00259542
0.00256511
0.00253845
0.00251155
0.00248638
0.00246161
0.00243785
0.0024146
0.00239206
0.00237001
0.00234851
0.00232744
0.00230682
0.00228657
0.00226672
0.00224719
0.00222799
0.00220909
0.00219048
0.00217213
0.00215404
0.00213618
0.00211856
0.00210114
0.00208394
0.00206693
0.00205011
0.00203346
0.00201698
0.00200067
0.00198451
0.0019685
0.00195265
0.00193692
0.00192133
0.00190587
0.00189053
0.00187531
0.00186021
0.00184521
0.00183033
0.00181554
0.00180086
0.00178628
0.00177179
0.00175739
0.00174308
0.00172885
0.0017147
0.00170064
0.00168665
0.00167274
0.00165891
0.00164514
0.00163144
0.00161781
0.00160425
0.00159074
0.0015773
0.00156392
0.0015506
0.00153733
0.00152412
0.00151096
0.00149786
0.0014848
0.00147179
0.00145883
0.00144592
0.00143305
0.00142023
0.00140745
0.00139471
0.00138201
0.00136935
0.00135673
0.00134414
0.00133159
0.00131908
0.0013066
0.00129416
0.00128174
0.00126936
0.00125701
0.00124469
0.0012324
0.00122014
0.0012079
0.00119569
0.00118351
0.00117136
0.00115922
0.00114712
0.00113503
0.00112297
0.00111093
0.00109891
0.00108691
0.00107494
0.00106298
0.00105105
0.00103913
0.00102723
0.00101534
0.00100348
0.000991631
0.000979801
0.000967985
0.000956186
0.0009444
0.000932632
0.000920875
0.000909135
0.000897405
0.000885692
0.000873989
0.000862301
0.000850622
0.000838958
0.000827303
0.000815661
0.000804028
0.000792408
0.000780796
0.000769196
0.000757604
0.000746023
0.00073445
0.000722887
0.000711331
0.000699786
0.000688247
0.000676719
0.000665195
0.000653682
0.000642174
0.000630675
0.00061918
0.000607696
0.000596214
0.000584742
0.000573274
0.000561814
0.000550357
0.000538909
0.000527464
0.000516028
0.000504594
0.000493168
0.000481745
0.00047033
0.000458917
0.000447512
0.000436108
0.000424712
0.000413316
0.000401926
0.000390537
0.000379153
0.000367769
0.000356389
0.00034501
0.000333635
0.000322261
0.000310891
0.000299523
0.000288161
0.000276801
0.000265448
0.000254099
0.000242758
0.000231421
0.000220094
0.00020877
0.000197456
0.000186145
0.000174844
0.000163544
0.000152254
0.000140964
0.000129681
0.0001184
0.00010712
9.58445e-05
8.45682e-05
7.32934e-05
6.20194e-05
5.07443e-05
3.94694e-05
2.81947e-05
1.6915e-05
5.64e-06
0.00307362
0.00283675
0.0028589
0.00275505
0.00273992
0.00268633
0.00266011
0.00262312
0.00259541
0.0025651
0.00253844
0.00251154
0.00248638
0.0024616
0.00243785
0.0024146
0.00239206
0.00237001
0.0023485
0.00232743
0.00230681
0.00228657
0.00226671
0.00224718
0.00222799
0.00220909
0.00219048
0.00217213
0.00215404
0.00213618
0.00211856
0.00210114
0.00208394
0.00206693
0.0020501
0.00203345
0.00201698
0.00200067
0.00198451
0.0019685
0.00195264
0.00193692
0.00192133
0.00190586
0.00189053
0.00187531
0.00186021
0.00184521
0.00183033
0.00181554
0.00180086
0.00178628
0.00177179
0.00175738
0.00174308
0.00172885
0.0017147
0.00170064
0.00168665
0.00167274
0.00165891
0.00164514
0.00163144
0.00161781
0.00160425
0.00159074
0.0015773
0.00156392
0.0015506
0.00153733
0.00152412
0.00151096
0.00149786
0.0014848
0.00147179
0.00145883
0.00144592
0.00143305
0.00142023
0.00140745
0.00139471
0.00138201
0.00136935
0.00135673
0.00134414
0.00133159
0.00131908
0.0013066
0.00129416
0.00128174
0.00126936
0.00125701
0.00124469
0.0012324
0.00122014
0.0012079
0.00119569
0.00118351
0.00117136
0.00115922
0.00114712
0.00113503
0.00112297
0.00111093
0.00109891
0.00108691
0.00107494
0.00106298
0.00105105
0.00103913
0.00102723
0.00101534
0.00100348
0.000991631
0.000979801
0.000967984
0.000956186
0.0009444
0.000932632
0.000920875
0.000909135
0.000897405
0.000885692
0.000873989
0.000862301
0.000850622
0.000838958
0.000827303
0.000815661
0.000804028
0.000792408
0.000780796
0.000769196
0.000757604
0.000746023
0.00073445
0.000722887
0.000711331
0.000699786
0.000688247
0.000676719
0.000665195
0.000653682
0.000642173
0.000630675
0.00061918
0.000607696
0.000596214
0.000584742
0.000573274
0.000561814
0.000550357
0.000538909
0.000527464
0.000516028
0.000504594
0.000493168
0.000481745
0.00047033
0.000458917
0.000447512
0.000436108
0.000424712
0.000413316
0.000401926
0.000390537
0.000379153
0.000367769
0.000356389
0.00034501
0.000333635
0.000322261
0.000310891
0.000299523
0.000288161
0.000276801
0.000265448
0.000254099
0.000242758
0.000231421
0.000220094
0.00020877
0.000197456
0.000186145
0.000174844
0.000163544
0.000152254
0.000140964
0.000129681
0.0001184
0.00010712
9.58445e-05
8.45682e-05
7.32934e-05
6.20194e-05
5.07443e-05
3.94694e-05
2.81947e-05
1.69151e-05
5.6401e-06
0.00307424
0.00283648
0.00285877
0.00275498
0.00273987
0.0026863
0.00266009
0.0026231
0.0025954
0.00256509
0.00253843
0.00251153
0.00248637
0.00246159
0.00243784
0.00241459
0.00239205
0.00237
0.0023485
0.00232743
0.00230681
0.00228657
0.00226671
0.00224718
0.00222799
0.00220909
0.00219048
0.00217213
0.00215404
0.00213618
0.00211856
0.00210114
0.00208394
0.00206692
0.0020501
0.00203345
0.00201698
0.00200066
0.00198451
0.0019685
0.00195264
0.00193692
0.00192133
0.00190586
0.00189053
0.00187531
0.00186021
0.00184521
0.00183033
0.00181554
0.00180086
0.00178627
0.00177179
0.00175738
0.00174307
0.00172885
0.0017147
0.00170064
0.00168665
0.00167274
0.00165891
0.00164514
0.00163144
0.00161781
0.00160425
0.00159074
0.0015773
0.00156392
0.0015506
0.00153733
0.00152412
0.00151096
0.00149786
0.0014848
0.00147179
0.00145883
0.00144592
0.00143305
0.00142023
0.00140745
0.00139471
0.00138201
0.00136935
0.00135672
0.00134414
0.00133159
0.00131908
0.0013066
0.00129416
0.00128174
0.00126936
0.00125701
0.00124469
0.0012324
0.00122014
0.0012079
0.00119569
0.00118351
0.00117135
0.00115922
0.00114711
0.00113503
0.00112297
0.00111093
0.00109891
0.00108691
0.00107494
0.00106298
0.00105104
0.00103913
0.00102723
0.00101534
0.00100348
0.000991631
0.000979801
0.000967984
0.000956186
0.0009444
0.000932632
0.000920875
0.000909135
0.000897405
0.000885692
0.000873989
0.000862301
0.000850622
0.000838958
0.000827303
0.000815661
0.000804028
0.000792408
0.000780796
0.000769196
0.000757604
0.000746023
0.00073445
0.000722887
0.000711331
0.000699786
0.000688247
0.000676718
0.000665195
0.000653682
0.000642173
0.000630675
0.00061918
0.000607696
0.000596214
0.000584742
0.000573274
0.000561814
0.000550357
0.000538909
0.000527464
0.000516028
0.000504594
0.000493168
0.000481745
0.00047033
0.000458917
0.000447512
0.000436108
0.000424712
0.000413316
0.000401926
0.000390537
0.000379153
0.000367769
0.000356389
0.00034501
0.000333635
0.000322261
0.000310891
0.000299523
0.000288161
0.000276801
0.000265448
0.000254099
0.000242758
0.000231421
0.000220094
0.00020877
0.000197456
0.000186145
0.000174844
0.000163544
0.000152254
0.000140964
0.000129681
0.0001184
0.00010712
9.58445e-05
8.45682e-05
7.32934e-05
6.20194e-05
5.07443e-05
3.94694e-05
2.81947e-05
1.69153e-05
5.64023e-06
0.00307498
0.00283616
0.00285863
0.00275489
0.00273981
0.00268626
0.00266006
0.00262308
0.00259538
0.00256508
0.00253842
0.00251152
0.00248636
0.00246158
0.00243783
0.00241458
0.00239205
0.00237
0.00234849
0.00232742
0.00230681
0.00228656
0.00226671
0.00224718
0.00222799
0.00220908
0.00219047
0.00217212
0.00215403
0.00213618
0.00211855
0.00210114
0.00208394
0.00206692
0.0020501
0.00203345
0.00201698
0.00200066
0.00198451
0.0019685
0.00195264
0.00193691
0.00192133
0.00190586
0.00189053
0.00187531
0.0018602
0.00184521
0.00183033
0.00181554
0.00180086
0.00178627
0.00177179
0.00175738
0.00174307
0.00172884
0.0017147
0.00170064
0.00168665
0.00167274
0.0016589
0.00164514
0.00163144
0.00161781
0.00160424
0.00159074
0.0015773
0.00156392
0.0015506
0.00153733
0.00152412
0.00151096
0.00149785
0.0014848
0.00147179
0.00145883
0.00144592
0.00143305
0.00142023
0.00140745
0.00139471
0.00138201
0.00136935
0.00135672
0.00134414
0.00133159
0.00131908
0.0013066
0.00129416
0.00128174
0.00126936
0.00125701
0.00124469
0.0012324
0.00122014
0.0012079
0.00119569
0.00118351
0.00117135
0.00115922
0.00114711
0.00113503
0.00112297
0.00111093
0.00109891
0.00108691
0.00107494
0.00106298
0.00105104
0.00103913
0.00102723
0.00101534
0.00100348
0.000991631
0.000979801
0.000967984
0.000956186
0.0009444
0.000932632
0.000920875
0.000909135
0.000897405
0.000885692
0.000873988
0.000862301
0.000850622
0.000838958
0.000827303
0.000815661
0.000804028
0.000792408
0.000780796
0.000769196
0.000757604
0.000746023
0.000734449
0.000722887
0.000711331
0.000699786
0.000688247
0.000676718
0.000665195
0.000653682
0.000642173
0.000630675
0.00061918
0.000607695
0.000596214
0.000584742
0.000573274
0.000561814
0.000550357
0.000538909
0.000527464
0.000516028
0.000504593
0.000493168
0.000481745
0.00047033
0.000458917
0.000447512
0.000436108
0.000424712
0.000413316
0.000401926
0.000390537
0.000379153
0.000367769
0.000356389
0.00034501
0.000333635
0.000322261
0.000310891
0.000299523
0.000288161
0.000276801
0.000265448
0.000254099
0.000242758
0.000231421
0.000220094
0.000208769
0.000197456
0.000186145
0.000174844
0.000163544
0.000152254
0.000140964
0.000129681
0.0001184
0.00010712
9.58445e-05
8.45682e-05
7.32934e-05
6.20194e-05
5.07443e-05
3.94694e-05
2.81947e-05
1.69154e-05
5.64038e-06
0.00307582
0.00283579
0.00285846
0.00275479
0.00273975
0.00268623
0.00266003
0.00262306
0.00259536
0.00256506
0.00253841
0.00251151
0.00248635
0.00246157
0.00243782
0.00241458
0.00239204
0.00236999
0.00234849
0.00232742
0.0023068
0.00228656
0.0022667
0.00224717
0.00222798
0.00220908
0.00219047
0.00217212
0.00215403
0.00213617
0.00211855
0.00210114
0.00208393
0.00206692
0.0020501
0.00203345
0.00201698
0.00200066
0.00198451
0.0019685
0.00195264
0.00193691
0.00192133
0.00190586
0.00189053
0.0018753
0.0018602
0.00184521
0.00183032
0.00181554
0.00180086
0.00178627
0.00177178
0.00175738
0.00174307
0.00172884
0.0017147
0.00170064
0.00168665
0.00167274
0.0016589
0.00164514
0.00163144
0.00161781
0.00160424
0.00159074
0.0015773
0.00156392
0.0015506
0.00153733
0.00152412
0.00151096
0.00149785
0.0014848
0.00147179
0.00145883
0.00144592
0.00143305
0.00142023
0.00140745
0.00139471
0.00138201
0.00136935
0.00135672
0.00134414
0.00133159
0.00131908
0.0013066
0.00129416
0.00128174
0.00126936
0.00125701
0.00124469
0.0012324
0.00122014
0.0012079
0.00119569
0.00118351
0.00117135
0.00115922
0.00114711
0.00113503
0.00112297
0.00111093
0.00109891
0.00108691
0.00107494
0.00106298
0.00105104
0.00103912
0.00102723
0.00101534
0.00100348
0.000991631
0.000979801
0.000967984
0.000956186
0.0009444
0.000932632
0.000920875
0.000909135
0.000897405
0.000885692
0.000873988
0.0008623
0.000850622
0.000838958
0.000827302
0.000815661
0.000804028
0.000792408
0.000780796
0.000769196
0.000757604
0.000746023
0.000734449
0.000722887
0.000711331
0.000699786
0.000688247
0.000676718
0.000665195
0.000653682
0.000642173
0.000630675
0.00061918
0.000607695
0.000596214
0.000584742
0.000573273
0.000561814
0.000550357
0.000538909
0.000527464
0.000516028
0.000504593
0.000493168
0.000481745
0.00047033
0.000458917
0.000447512
0.000436108
0.000424712
0.000413316
0.000401926
0.000390537
0.000379153
0.000367769
0.000356389
0.00034501
0.000333635
0.000322261
0.000310891
0.000299523
0.000288161
0.000276801
0.000265448
0.000254099
0.000242758
0.000231421
0.000220093
0.000208769
0.000197456
0.000186144
0.000174844
0.000163544
0.000152254
0.000140964
0.000129681
0.0001184
0.00010712
9.58445e-05
8.45682e-05
7.32934e-05
6.20194e-05
5.07443e-05
3.94695e-05
2.81947e-05
1.69156e-05
5.64055e-06
0.00307677
0.00283538
0.00285828
0.00275468
0.00273967
0.00268618
0.00266
0.00262303
0.00259534
0.00256504
0.00253839
0.00251149
0.00248634
0.00246156
0.00243781
0.00241457
0.00239203
0.00236998
0.00234848
0.00232741
0.00230679
0.00228655
0.0022667
0.00224717
0.00222798
0.00220907
0.00219047
0.00217212
0.00215403
0.00213617
0.00211855
0.00210113
0.00208393
0.00206692
0.0020501
0.00203345
0.00201697
0.00200066
0.00198451
0.0019685
0.00195264
0.00193691
0.00192132
0.00190586
0.00189052
0.0018753
0.0018602
0.00184521
0.00183032
0.00181554
0.00180086
0.00178627
0.00177178
0.00175738
0.00174307
0.00172884
0.0017147
0.00170064
0.00168665
0.00167274
0.0016589
0.00164513
0.00163144
0.00161781
0.00160424
0.00159074
0.0015773
0.00156392
0.0015506
0.00153733
0.00152412
0.00151096
0.00149785
0.0014848
0.00147179
0.00145883
0.00144592
0.00143305
0.00142023
0.00140744
0.00139471
0.00138201
0.00136935
0.00135672
0.00134414
0.00133159
0.00131908
0.0013066
0.00129416
0.00128174
0.00126936
0.00125701
0.00124469
0.0012324
0.00122014
0.0012079
0.00119569
0.00118351
0.00117135
0.00115922
0.00114711
0.00113503
0.00112297
0.00111093
0.00109891
0.00108691
0.00107494
0.00106298
0.00105104
0.00103912
0.00102723
0.00101534
0.00100348
0.000991631
0.000979801
0.000967984
0.000956186
0.0009444
0.000932632
0.000920874
0.000909134
0.000897405
0.000885692
0.000873988
0.0008623
0.000850622
0.000838958
0.000827302
0.000815661
0.000804028
0.000792408
0.000780796
0.000769196
0.000757603
0.000746023
0.000734449
0.000722887
0.000711331
0.000699786
0.000688247
0.000676718
0.000665195
0.000653682
0.000642173
0.000630675
0.00061918
0.000607695
0.000596214
0.000584742
0.000573273
0.000561814
0.000550357
0.000538909
0.000527464
0.000516027
0.000504593
0.000493168
0.000481745
0.00047033
0.000458917
0.000447512
0.000436108
0.000424712
0.000413316
0.000401926
0.000390537
0.000379153
0.000367769
0.000356389
0.00034501
0.000333635
0.000322261
0.000310891
0.000299523
0.00028816
0.000276801
0.000265448
0.000254098
0.000242758
0.000231421
0.000220093
0.000208769
0.000197456
0.000186144
0.000174844
0.000163544
0.000152253
0.000140964
0.000129681
0.0001184
0.00010712
9.58445e-05
8.45681e-05
7.32934e-05
6.20194e-05
5.07443e-05
3.94695e-05
2.81947e-05
1.69157e-05
5.64074e-06
0.00307782
0.00283492
0.00285807
0.00275456
0.00273959
0.00268613
0.00265996
0.002623
0.00259532
0.00256502
0.00253837
0.00251148
0.00248632
0.00246155
0.0024378
0.00241456
0.00239202
0.00236997
0.00234847
0.0023274
0.00230679
0.00228655
0.00226669
0.00224716
0.00222797
0.00220907
0.00219046
0.00217211
0.00215402
0.00213617
0.00211854
0.00210113
0.00208393
0.00206691
0.00205009
0.00203344
0.00201697
0.00200066
0.0019845
0.00196849
0.00195264
0.00193691
0.00192132
0.00190586
0.00189052
0.0018753
0.0018602
0.0018452
0.00183032
0.00181554
0.00180086
0.00178627
0.00177178
0.00175738
0.00174307
0.00172884
0.0017147
0.00170063
0.00168665
0.00167274
0.0016589
0.00164513
0.00163144
0.00161781
0.00160424
0.00159074
0.0015773
0.00156392
0.0015506
0.00153733
0.00152412
0.00151096
0.00149785
0.0014848
0.00147179
0.00145883
0.00144592
0.00143305
0.00142023
0.00140744
0.00139471
0.00138201
0.00136935
0.00135672
0.00134414
0.00133159
0.00131908
0.0013066
0.00129415
0.00128174
0.00126936
0.00125701
0.00124469
0.0012324
0.00122014
0.0012079
0.00119569
0.00118351
0.00117135
0.00115922
0.00114711
0.00113503
0.00112297
0.00111093
0.00109891
0.00108691
0.00107494
0.00106298
0.00105104
0.00103912
0.00102723
0.00101534
0.00100348
0.00099163
0.000979801
0.000967984
0.000956186
0.0009444
0.000932631
0.000920874
0.000909134
0.000897405
0.000885692
0.000873988
0.0008623
0.000850622
0.000838958
0.000827302
0.000815661
0.000804028
0.000792408
0.000780796
0.000769196
0.000757603
0.000746023
0.000734449
0.000722887
0.000711331
0.000699786
0.000688247
0.000676718
0.000665195
0.000653682
0.000642173
0.000630675
0.00061918
0.000607695
0.000596214
0.000584742
0.000573273
0.000561814
0.000550357
0.000538909
0.000527464
0.000516027
0.000504593
0.000493168
0.000481745
0.00047033
0.000458917
0.000447512
0.000436108
0.000424712
0.000413316
0.000401926
0.000390537
0.000379153
0.000367769
0.000356389
0.00034501
0.000333635
0.000322261
0.000310891
0.000299523
0.00028816
0.0002768
0.000265448
0.000254098
0.000242758
0.000231421
0.000220093
0.000208769
0.000197456
0.000186144
0.000174843
0.000163544
0.000152253
0.000140964
0.000129681
0.0001184
0.00010712
9.58445e-05
8.45681e-05
7.32934e-05
6.20194e-05
5.07443e-05
3.94695e-05
2.81948e-05
1.69159e-05
5.64093e-06
0.00307898
0.00283441
0.00285784
0.00275442
0.00273951
0.00268608
0.00265992
0.00262297
0.00259529
0.002565
0.00253836
0.00251146
0.00248631
0.00246154
0.00243779
0.00241455
0.00239201
0.00236996
0.00234847
0.0023274
0.00230678
0.00228654
0.00226668
0.00224716
0.00222797
0.00220906
0.00219046
0.00217211
0.00215402
0.00213616
0.00211854
0.00210113
0.00208392
0.00206691
0.00205009
0.00203344
0.00201697
0.00200065
0.0019845
0.00196849
0.00195263
0.00193691
0.00192132
0.00190586
0.00189052
0.0018753
0.0018602
0.0018452
0.00183032
0.00181554
0.00180086
0.00178627
0.00177178
0.00175738
0.00174307
0.00172884
0.0017147
0.00170063
0.00168665
0.00167274
0.0016589
0.00164513
0.00163144
0.00161781
0.00160424
0.00159074
0.0015773
0.00156392
0.0015506
0.00153733
0.00152412
0.00151096
0.00149785
0.0014848
0.00147179
0.00145883
0.00144592
0.00143305
0.00142023
0.00140744
0.0013947
0.001382
0.00136935
0.00135672
0.00134414
0.00133159
0.00131908
0.0013066
0.00129415
0.00128174
0.00126936
0.00125701
0.00124469
0.0012324
0.00122014
0.0012079
0.00119569
0.00118351
0.00117135
0.00115922
0.00114711
0.00113503
0.00112297
0.00111093
0.00109891
0.00108691
0.00107494
0.00106298
0.00105104
0.00103912
0.00102723
0.00101534
0.00100348
0.00099163
0.000979801
0.000967984
0.000956186
0.000944399
0.000932631
0.000920874
0.000909134
0.000897405
0.000885691
0.000873988
0.0008623
0.000850621
0.000838957
0.000827302
0.000815661
0.000804028
0.000792408
0.000780795
0.000769196
0.000757603
0.000746023
0.000734449
0.000722887
0.000711331
0.000699786
0.000688247
0.000676718
0.000665195
0.000653682
0.000642173
0.000630675
0.00061918
0.000607695
0.000596214
0.000584742
0.000573273
0.000561814
0.000550357
0.000538909
0.000527464
0.000516027
0.000504593
0.000493168
0.000481745
0.00047033
0.000458917
0.000447512
0.000436108
0.000424712
0.000413316
0.000401926
0.000390537
0.000379153
0.000367769
0.000356389
0.00034501
0.000333635
0.000322261
0.000310891
0.000299523
0.00028816
0.0002768
0.000265448
0.000254098
0.000242758
0.00023142
0.000220093
0.000208769
0.000197456
0.000186144
0.000174843
0.000163544
0.000152253
0.000140964
0.000129681
0.0001184
0.00010712
9.58444e-05
8.45681e-05
7.32934e-05
6.20194e-05
5.07443e-05
3.94695e-05
2.81948e-05
1.69161e-05
5.64113e-06
0.00308024
0.00283385
0.00285758
0.00275428
0.00273941
0.00268602
0.00265988
0.00262294
0.00259526
0.00256498
0.00253833
0.00251145
0.00248629
0.00246152
0.00243778
0.00241453
0.002392
0.00236995
0.00234846
0.00232739
0.00230677
0.00228653
0.00226668
0.00224715
0.00222796
0.00220906
0.00219045
0.0021721
0.00215402
0.00213616
0.00211854
0.00210112
0.00208392
0.00206691
0.00205009
0.00203344
0.00201697
0.00200065
0.0019845
0.00196849
0.00195263
0.00193691
0.00192132
0.00190585
0.00189052
0.0018753
0.0018602
0.0018452
0.00183032
0.00181553
0.00180086
0.00178627
0.00177178
0.00175738
0.00174307
0.00172884
0.0017147
0.00170063
0.00168665
0.00167274
0.0016589
0.00164513
0.00163144
0.0016178
0.00160424
0.00159074
0.0015773
0.00156392
0.0015506
0.00153733
0.00152412
0.00151096
0.00149785
0.0014848
0.00147179
0.00145883
0.00144592
0.00143305
0.00142023
0.00140744
0.0013947
0.001382
0.00136935
0.00135672
0.00134414
0.00133159
0.00131908
0.0013066
0.00129415
0.00128174
0.00126936
0.00125701
0.00124469
0.0012324
0.00122014
0.0012079
0.00119569
0.00118351
0.00117135
0.00115922
0.00114711
0.00113503
0.00112297
0.00111093
0.00109891
0.00108691
0.00107494
0.00106298
0.00105104
0.00103912
0.00102723
0.00101534
0.00100348
0.00099163
0.0009798
0.000967984
0.000956185
0.000944399
0.000932631
0.000920874
0.000909134
0.000897405
0.000885691
0.000873988
0.0008623
0.000850621
0.000838957
0.000827302
0.000815661
0.000804028
0.000792408
0.000780795
0.000769196
0.000757603
0.000746023
0.000734449
0.000722887
0.000711331
0.000699786
0.000688247
0.000676718
0.000665195
0.000653682
0.000642173
0.000630675
0.00061918
0.000607695
0.000596214
0.000584742
0.000573273
0.000561814
0.000550357
0.000538909
0.000527464
0.000516027
0.000504593
0.000493168
0.000481745
0.00047033
0.000458917
0.000447512
0.000436108
0.000424712
0.000413316
0.000401926
0.000390537
0.000379153
0.000367769
0.000356389
0.00034501
0.000333635
0.000322261
0.000310891