/*--------------------------------*- C++ -*----------------------------------*\
| =========                 |                                                 |
| \\      /  F ield         | OpenFOAM: The Open Source CFD Toolbox           |
|  \\    /   O peration     | Version:  2412                                  |
|   \\  /    A nd           | Website:  www.openfoam.com                      |
|    \\/     M anipulation  |                                                 |
\*---------------------------------------------------------------------------*/
FoamFile
{
    version     2.0;
    format      ascii;
    arch        "LSB;label=32;scalar=64";
    class       surfaceScalarField;
    location    "783";
    object      phi;
}
// * * * * * * * * * * * * * * * * * * * * * * * * * * * * * * * * * * * * * //

dimensions      [0 3 -1 0 0 0 0];

oriented        oriented;

internalField   nonuniform List<scalar> 
15760
(
1.31109e-08
-6.10851e-10
1.35269e-08
-4.16095e-10
1.37775e-08
-2.50598e-10
1.40115e-08
-2.33938e-10
1.41853e-08
-1.73804e-10
1.43505e-08
-1.65262e-10
1.44948e-08
-1.44225e-10
1.46315e-08
-1.3673e-10
1.47579e-08
-1.26414e-10
1.48782e-08
-1.20312e-10
1.49921e-08
-1.13835e-10
1.51011e-08
-1.0902e-10
1.52054e-08
-1.04342e-10
1.53059e-08
-1.00498e-10
1.54028e-08
-9.68301e-11
1.54964e-08
-9.36693e-11
1.55871e-08
-9.06297e-11
1.5675e-08
-8.79376e-11
1.57603e-08
-8.53109e-11
1.58432e-08
-8.29399e-11
1.59238e-08
-8.05937e-11
1.60023e-08
-7.84454e-11
1.60786e-08
-7.62963e-11
1.61529e-08
-7.4307e-11
1.62252e-08
-7.23028e-11
1.62956e-08
-7.04325e-11
1.63642e-08
-6.85411e-11
1.64309e-08
-6.67656e-11
1.64959e-08
-6.4968e-11
1.65592e-08
-6.32729e-11
1.66207e-08
-6.15584e-11
1.66807e-08
-5.99359e-11
1.6739e-08
-5.82984e-11
1.67957e-08
-5.67442e-11
1.68509e-08
-5.51804e-11
1.69046e-08
-5.36926e-11
1.69568e-08
-5.22002e-11
1.70076e-08
-5.07778e-11
1.70569e-08
-4.93552e-11
1.71049e-08
-4.79977e-11
1.71516e-08
-4.66433e-11
1.71969e-08
-4.53502e-11
1.7241e-08
-4.40621e-11
1.72838e-08
-4.28326e-11
1.73254e-08
-4.16091e-11
1.73658e-08
-4.0442e-11
1.74051e-08
-3.92811e-11
1.74433e-08
-3.81749e-11
1.74804e-08
-3.70747e-11
1.75164e-08
-3.60272e-11
1.75514e-08
-3.49856e-11
1.75854e-08
-3.39946e-11
1.76184e-08
-3.30095e-11
1.76505e-08
-3.20727e-11
1.76816e-08
-3.11418e-11
1.77119e-08
-3.02566e-11
1.77412e-08
-2.93776e-11
1.77698e-08
-2.85416e-11
1.77975e-08
-2.7712e-11
1.78244e-08
-2.69229e-11
1.78506e-08
-2.61403e-11
1.7876e-08
-2.53957e-11
1.79006e-08
-2.46576e-11
1.79246e-08
-2.39552e-11
1.79478e-08
-2.32592e-11
1.79704e-08
-2.25969e-11
1.79924e-08
-2.19408e-11
1.80137e-08
-2.13161e-11
1.80344e-08
-2.06978e-11
1.80545e-08
-2.01088e-11
1.8074e-08
-1.95261e-11
1.8093e-08
-1.89707e-11
1.81114e-08
-1.84217e-11
1.81293e-08
-1.78979e-11
1.81467e-08
-1.73807e-11
1.81636e-08
-1.68868e-11
1.818e-08
-1.63996e-11
1.81959e-08
-1.59337e-11
1.82114e-08
-1.54747e-11
1.82264e-08
-1.50354e-11
1.8241e-08
-1.4603e-11
1.82552e-08
-1.41886e-11
1.8269e-08
-1.37812e-11
1.82824e-08
-1.33903e-11
1.82954e-08
-1.30064e-11
1.8308e-08
-1.26378e-11
1.83203e-08
-1.22759e-11
1.83322e-08
-1.19284e-11
1.83438e-08
-1.15872e-11
1.83551e-08
-1.12595e-11
1.8366e-08
-1.09378e-11
1.83766e-08
-1.06288e-11
1.8387e-08
-1.03254e-11
1.8397e-08
-1.00339e-11
1.84067e-08
-9.74781e-12
1.84162e-08
-9.47297e-12
1.84254e-08
-9.20307e-12
1.84344e-08
-8.94387e-12
1.84431e-08
-8.68923e-12
1.84515e-08
-8.44477e-12
1.84597e-08
-8.20452e-12
1.84677e-08
-7.97394e-12
1.84754e-08
-7.74726e-12
1.8483e-08
-7.52971e-12
1.84903e-08
-7.31586e-12
1.84974e-08
-7.11055e-12
1.85043e-08
-6.90883e-12
1.8511e-08
-6.71503e-12
1.85175e-08
-6.52474e-12
1.85239e-08
-6.34181e-12
1.853e-08
-6.16224e-12
1.8536e-08
-5.98962e-12
1.85418e-08
-5.82004e-12
1.85475e-08
-5.65726e-12
1.8553e-08
-5.49701e-12
1.85583e-08
-5.3436e-12
1.85635e-08
-5.19209e-12
1.85686e-08
-5.04759e-12
1.85735e-08
-4.90428e-12
1.85783e-08
-4.76816e-12
1.85829e-08
-4.63258e-12
1.85874e-08
-4.50428e-12
1.85918e-08
-4.37603e-12
1.8596e-08
-4.25503e-12
1.86002e-08
-4.13379e-12
1.86042e-08
-4.01962e-12
1.86081e-08
-3.90516e-12
1.86119e-08
-3.79743e-12
1.86156e-08
-3.68948e-12
1.86192e-08
-3.58777e-12
1.86226e-08
-3.486e-12
1.8626e-08
-3.38981e-12
1.86293e-08
-3.29379e-12
1.86325e-08
-3.20263e-12
1.86356e-08
-3.11195e-12
1.86387e-08
-3.02544e-12
1.86416e-08
-2.93978e-12
1.86445e-08
-2.8578e-12
1.86472e-08
-2.777e-12
1.86499e-08
-2.6996e-12
1.86526e-08
-2.6236e-12
1.86551e-08
-2.55086e-12
1.86576e-08
-2.4796e-12
1.866e-08
-2.41143e-12
1.86624e-08
-2.34467e-12
1.86646e-08
-2.28065e-12
1.86668e-08
-2.21787e-12
1.8669e-08
-2.15724e-12
1.86711e-08
-2.09756e-12
1.86731e-08
-2.03936e-12
1.86751e-08
-1.98173e-12
1.8677e-08
-1.92502e-12
1.86789e-08
-1.86863e-12
1.86807e-08
-1.81297e-12
1.86825e-08
-1.75779e-12
1.86842e-08
-1.7037e-12
1.86858e-08
-1.65091e-12
1.86874e-08
-1.60028e-12
1.8689e-08
-1.5522e-12
1.86905e-08
-1.50794e-12
1.8692e-08
-1.46726e-12
1.86934e-08
-1.43247e-12
1.86948e-08
-1.40084e-12
1.86962e-08
-1.37721e-12
1.86975e-08
-1.35388e-12
1.86989e-08
-1.34004e-12
1.87002e-08
-1.32144e-12
1.87015e-08
-1.31172e-12
1.87028e-08
-1.29243e-12
1.87041e-08
-1.27733e-12
1.87053e-08
-1.25146e-12
1.87066e-08
-1.22061e-12
1.87077e-08
-1.18238e-12
1.87089e-08
-1.12951e-12
1.87099e-08
-1.07364e-12
1.87109e-08
-9.99456e-13
1.87119e-08
-9.2344e-13
1.87127e-08
-8.33995e-13
1.87134e-08
-7.41407e-13
1.87141e-08
-6.44233e-13
1.87146e-08
-5.45078e-13
1.87151e-08
-4.47466e-13
1.87154e-08
-3.53424e-13
1.87157e-08
-2.64147e-13
1.87159e-08
-1.81721e-13
1.8716e-08
-1.12404e-13
1.8716e-08
-4.06979e-14
1.8716e-08
-1.24892e-15
1.8716e-08
6.10871e-14
1.87159e-08
7.30584e-14
1.87158e-08
1.16582e-13
1.87157e-08
1.21171e-13
1.87155e-08
1.32025e-13
1.87154e-08
1.38102e-13
1.87152e-08
1.37063e-13
1.87151e-08
1.18355e-13
1.8715e-08
1.3412e-13
1.87149e-08
8.41411e-14
1.87148e-08
1.33413e-13
2.45016e-14
1.31372e-08
-1.24809e-09
1.35107e-08
-7.89552e-10
1.37872e-08
-5.27112e-10
1.40066e-08
-4.53298e-10
1.41886e-08
-3.55825e-10
1.43495e-08
-3.26159e-10
1.44962e-08
-2.90895e-10
1.46316e-08
-2.72142e-10
1.47587e-08
-2.53586e-10
1.48786e-08
-2.40216e-10
1.49927e-08
-2.27917e-10
1.51016e-08
-2.1791e-10
1.5206e-08
-2.08764e-10
1.53065e-08
-2.00941e-10
1.54033e-08
-1.93669e-10
1.54969e-08
-1.87285e-10
1.55875e-08
-1.81218e-10
1.56754e-08
-1.75793e-10
1.57606e-08
-1.70532e-10
1.58434e-08
-1.65755e-10
1.59239e-08
-1.61047e-10
1.60021e-08
-1.56719e-10
1.60783e-08
-1.52403e-10
1.61523e-08
-1.48394e-10
1.62244e-08
-1.44368e-10
1.62946e-08
-1.40601e-10
1.63628e-08
-1.36803e-10
1.64293e-08
-1.33228e-10
1.6494e-08
-1.29621e-10
1.65569e-08
-1.26212e-10
1.66181e-08
-1.22773e-10
1.66777e-08
-1.19513e-10
1.67356e-08
-1.16231e-10
1.6792e-08
-1.13112e-10
1.68468e-08
-1.0998e-10
1.69001e-08
-1.06997e-10
1.69519e-08
-1.04011e-10
1.70023e-08
-1.01161e-10
1.70512e-08
-9.83171e-11
1.70988e-08
-9.55994e-11
1.71451e-08
-9.28937e-11
1.719e-08
-9.03068e-11
1.72337e-08
-8.77354e-11
1.72762e-08
-8.52774e-11
1.73174e-08
-8.28363e-11
1.73575e-08
-8.05044e-11
1.73964e-08
-7.81895e-11
1.74342e-08
-7.59802e-11
1.74709e-08
-7.37873e-11
1.75066e-08
-7.16964e-11
1.75412e-08
-6.96212e-11
1.75748e-08
-6.76439e-11
1.76075e-08
-6.56819e-11
1.76392e-08
-6.38133e-11
1.76701e-08
-6.19599e-11
1.77e-08
-6.01949e-11
1.77291e-08
-5.84452e-11
1.77573e-08
-5.67788e-11
1.77847e-08
-5.51278e-11
1.78114e-08
-5.35553e-11
1.78372e-08
-5.19981e-11
1.78623e-08
-5.05146e-11
1.78867e-08
-4.90462e-11
1.79104e-08
-4.76471e-11
1.79334e-08
-4.62627e-11
1.79558e-08
-4.49435e-11
1.79775e-08
-4.36386e-11
1.79985e-08
-4.23948e-11
1.8019e-08
-4.11651e-11
1.80389e-08
-3.99924e-11
1.80582e-08
-3.88338e-11
1.8077e-08
-3.77281e-11
1.80952e-08
-3.66365e-11
1.81129e-08
-3.55939e-11
1.81301e-08
-3.45655e-11
1.81468e-08
-3.35824e-11
1.8163e-08
-3.26137e-11
1.81787e-08
-3.16866e-11
1.8194e-08
-3.07741e-11
1.82089e-08
-2.98997e-11
1.82233e-08
-2.90401e-11
1.82373e-08
-2.82155e-11
1.8251e-08
-2.74056e-11
1.82642e-08
-2.66279e-11
1.82771e-08
-2.58647e-11
1.82896e-08
-2.51314e-11
1.83017e-08
-2.4412e-11
1.83135e-08
-2.37205e-11
1.83249e-08
-2.30423e-11
1.83361e-08
-2.23902e-11
1.83469e-08
-2.17508e-11
1.83574e-08
-2.11359e-11
1.83676e-08
-2.0533e-11
1.83775e-08
-1.9953e-11
1.83872e-08
-1.93844e-11
1.83965e-08
-1.88374e-11
1.84056e-08
-1.83012e-11
1.84145e-08
-1.77852e-11
1.84231e-08
-1.72794e-11
1.84314e-08
-1.67927e-11
1.84395e-08
-1.63156e-11
1.84474e-08
-1.58565e-11
1.84551e-08
-1.54063e-11
1.84625e-08
-1.49731e-11
1.84697e-08
-1.45485e-11
1.84768e-08
-1.41395e-11
1.84836e-08
-1.37391e-11
1.84902e-08
-1.3353e-11
1.84967e-08
-1.29754e-11
1.85029e-08
-1.26108e-11
1.8509e-08
-1.22545e-11
1.8515e-08
-1.19105e-11
1.85207e-08
-1.15741e-11
1.85263e-08
-1.12496e-11
1.85317e-08
-1.09317e-11
1.8537e-08
-1.06259e-11
1.85422e-08
-1.03254e-11
1.85471e-08
-1.00372e-11
1.8552e-08
-9.75308e-12
1.85567e-08
-9.48156e-12
1.85613e-08
-9.2128e-12
1.85657e-08
-8.95686e-12
1.85701e-08
-8.70265e-12
1.85743e-08
-8.46122e-12
1.85784e-08
-8.22093e-12
1.85823e-08
-7.99312e-12
1.85862e-08
-7.76626e-12
1.85899e-08
-7.55128e-12
1.85936e-08
-7.33734e-12
1.85971e-08
-7.13435e-12
1.86006e-08
-6.93269e-12
1.86039e-08
-6.7407e-12
1.86072e-08
-6.55049e-12
1.86104e-08
-6.36853e-12
1.86134e-08
-6.18893e-12
1.86164e-08
-6.01624e-12
1.86193e-08
-5.8466e-12
1.86222e-08
-5.68289e-12
1.86249e-08
-5.52289e-12
1.86276e-08
-5.36825e-12
1.86302e-08
-5.21776e-12
1.86327e-08
-5.07236e-12
1.86351e-08
-4.93128e-12
1.86375e-08
-4.79494e-12
1.86398e-08
-4.66285e-12
1.86421e-08
-4.53477e-12
1.86443e-08
-4.41069e-12
1.86464e-08
-4.28941e-12
1.86485e-08
-4.17162e-12
1.86505e-08
-4.05525e-12
1.86525e-08
-3.94168e-12
1.86544e-08
-3.82833e-12
1.86562e-08
-3.7173e-12
1.8658e-08
-3.606e-12
1.86598e-08
-3.49732e-12
1.86614e-08
-3.38898e-12
1.86631e-08
-3.28481e-12
1.86647e-08
-3.18301e-12
1.86662e-08
-3.08779e-12
1.86677e-08
-2.9983e-12
1.86691e-08
-2.91731e-12
1.86706e-08
-2.84639e-12
1.86719e-08
-2.78308e-12
1.86733e-08
-2.73444e-12
1.86746e-08
-2.68763e-12
1.86759e-08
-2.65898e-12
1.86772e-08
-2.62211e-12
1.86785e-08
-2.60253e-12
1.86798e-08
-2.56534e-12
1.86811e-08
-2.53606e-12
1.86823e-08
-2.48706e-12
1.86835e-08
-2.4275e-12
1.86847e-08
-2.35484e-12
1.86858e-08
-2.25232e-12
1.86869e-08
-2.14488e-12
1.86879e-08
-2.0002e-12
1.86888e-08
-1.85246e-12
1.86896e-08
-1.67678e-12
1.86904e-08
-1.49548e-12
1.86911e-08
-1.30304e-12
1.86916e-08
-1.10777e-12
1.86921e-08
-9.12881e-13
1.86925e-08
-7.26582e-13
1.86927e-08
-5.47132e-13
1.86929e-08
-3.82451e-13
1.86931e-08
-2.42363e-13
1.86931e-08
-9.76198e-14
1.86931e-08
-1.69319e-14
1.86931e-08
1.0938e-13
1.8693e-08
1.36316e-13
1.86929e-08
2.23507e-13
1.86928e-08
2.36949e-13
1.86927e-08
2.58535e-13
1.86926e-08
2.72941e-13
1.86924e-08
2.72209e-13
1.86923e-08
2.37068e-13
1.86922e-08
2.64893e-13
1.86921e-08
1.77725e-13
1.8692e-08
2.29742e-13
-4.016e-15
1.31378e-08
-1.88593e-09
1.35118e-08
-1.16347e-09
1.37883e-08
-8.03629e-10
1.40076e-08
-6.72664e-10
1.41897e-08
-5.37863e-10
1.43506e-08
-4.87069e-10
1.44973e-08
-4.37582e-10
1.46327e-08
-4.07568e-10
1.47599e-08
-3.80776e-10
1.48798e-08
-3.60136e-10
1.49939e-08
-3.42016e-10
1.51028e-08
-3.26805e-10
1.52072e-08
-3.13182e-10
1.53076e-08
-3.01358e-10
1.54044e-08
-2.9046e-10
1.5498e-08
-2.80818e-10
1.55884e-08
-2.7169e-10
1.56761e-08
-2.63488e-10
1.57612e-08
-2.5555e-10
1.58437e-08
-2.48317e-10
1.59239e-08
-2.41201e-10
1.60018e-08
-2.3464e-10
1.60775e-08
-2.2811e-10
1.61511e-08
-2.22033e-10
1.62227e-08
-2.15942e-10
1.62923e-08
-2.10233e-10
1.636e-08
-2.0449e-10
1.64259e-08
-1.9908e-10
1.64899e-08
-1.9363e-10
1.65522e-08
-1.88477e-10
1.66127e-08
-1.83289e-10
1.66715e-08
-1.78368e-10
1.67287e-08
-1.73425e-10
1.67843e-08
-1.68724e-10
1.68384e-08
-1.64013e-10
1.68909e-08
-1.59524e-10
1.69419e-08
-1.55038e-10
1.69915e-08
-1.50756e-10
1.70397e-08
-1.46489e-10
1.70865e-08
-1.42411e-10
1.7132e-08
-1.38357e-10
1.71761e-08
-1.34479e-10
1.7219e-08
-1.3063e-10
1.72607e-08
-1.2695e-10
1.73012e-08
-1.233e-10
1.73405e-08
-1.19812e-10
1.73786e-08
-1.16353e-10
1.74157e-08
-1.13051e-10
1.74517e-08
-1.09777e-10
1.74867e-08
-1.06654e-10
1.75206e-08
-1.03559e-10
1.75536e-08
-1.00607e-10
1.75856e-08
-9.76821e-11
1.76166e-08
-9.48949e-11
1.76468e-08
-9.21329e-11
1.76761e-08
-8.95015e-11
1.77046e-08
-8.68953e-11
1.77322e-08
-8.44121e-11
1.7759e-08
-8.19539e-11
1.77851e-08
-7.96114e-11
1.78104e-08
-7.72936e-11
1.78349e-08
-7.50846e-11
1.78588e-08
-7.28996e-11
1.7882e-08
-7.08169e-11
1.79045e-08
-6.87575e-11
1.79263e-08
-6.67941e-11
1.79475e-08
-6.48535e-11
1.79681e-08
-6.30028e-11
1.79881e-08
-6.11743e-11
1.80076e-08
-5.94297e-11
1.80265e-08
-5.77071e-11
1.80448e-08
-5.60625e-11
1.80626e-08
-5.44399e-11
1.80799e-08
-5.28894e-11
1.80967e-08
-5.1361e-11
1.8113e-08
-4.98991e-11
1.81288e-08
-4.84595e-11
1.81442e-08
-4.70811e-11
1.81592e-08
-4.57251e-11
1.81737e-08
-4.44252e-11
1.81878e-08
-4.31479e-11
1.82015e-08
-4.19221e-11
1.82148e-08
-4.07188e-11
1.82278e-08
-3.95628e-11
1.82403e-08
-3.84289e-11
1.82526e-08
-3.73389e-11
1.82644e-08
-3.62702e-11
1.82759e-08
-3.52424e-11
1.82871e-08
-3.42349e-11
1.8298e-08
-3.32658e-11
1.83086e-08
-3.2316e-11
1.83188e-08
-3.1402e-11
1.83288e-08
-3.05065e-11
1.83385e-08
-2.96445e-11
1.83479e-08
-2.88e-11
1.83571e-08
-2.79871e-11
1.8366e-08
-2.71906e-11
1.83746e-08
-2.64238e-11
1.8383e-08
-2.56725e-11
1.83911e-08
-2.49492e-11
1.83991e-08
-2.42405e-11
1.84068e-08
-2.35582e-11
1.84143e-08
-2.28897e-11
1.84215e-08
-2.22457e-11
1.84286e-08
-2.16152e-11
1.84355e-08
-2.10074e-11
1.84421e-08
-2.04128e-11
1.84486e-08
-1.98389e-11
1.84549e-08
-1.92781e-11
1.8461e-08
-1.87363e-11
1.8467e-08
-1.82072e-11
1.84728e-08
-1.76958e-11
1.84784e-08
-1.71963e-11
1.84839e-08
-1.67139e-11
1.84892e-08
-1.6242e-11
1.84943e-08
-1.57872e-11
1.84994e-08
-1.53412e-11
1.85042e-08
-1.49127e-11
1.8509e-08
-1.4491e-11
1.85136e-08
-1.40872e-11
1.85181e-08
-1.36883e-11
1.85224e-08
-1.33077e-11
1.85266e-08
-1.29304e-11
1.85307e-08
-1.25713e-11
1.85347e-08
-1.22147e-11
1.85386e-08
-1.18759e-11
1.85424e-08
-1.15392e-11
1.85461e-08
-1.12194e-11
1.85496e-08
-1.09019e-11
1.85531e-08
-1.06e-11
1.85565e-08
-1.03007e-11
1.85597e-08
-1.00151e-11
1.85629e-08
-9.7329e-12
1.8566e-08
-9.46224e-12
1.8569e-08
-9.19577e-12
1.85719e-08
-8.93891e-12
1.85748e-08
-8.68722e-12
1.85775e-08
-8.44369e-12
1.85802e-08
-8.20626e-12
1.85828e-08
-7.97617e-12
1.85854e-08
-7.75283e-12
1.85878e-08
-7.53642e-12
1.85902e-08
-7.32702e-12
1.85926e-08
-7.12406e-12
1.85948e-08
-6.92805e-12
1.8597e-08
-6.73739e-12
1.85992e-08
-6.55336e-12
1.86012e-08
-6.37291e-12
1.86033e-08
-6.19835e-12
1.86052e-08
-6.02532e-12
1.86072e-08
-5.8572e-12
1.8609e-08
-5.68875e-12
1.86108e-08
-5.52448e-12
1.86126e-08
-5.35907e-12
1.86143e-08
-5.19821e-12
1.86159e-08
-5.03701e-12
1.86175e-08
-4.88256e-12
1.86191e-08
-4.73065e-12
1.86206e-08
-4.589e-12
1.8622e-08
-4.45487e-12
1.86235e-08
-4.33379e-12
1.86248e-08
-4.22687e-12
1.86262e-08
-4.13165e-12
1.86275e-08
-4.05779e-12
1.86288e-08
-3.98719e-12
1.86301e-08
-3.94348e-12
1.86314e-08
-3.88848e-12
1.86326e-08
-3.85913e-12
1.86338e-08
-3.80516e-12
1.86351e-08
-3.76261e-12
1.86363e-08
-3.69274e-12
1.86375e-08
-3.60664e-12
1.86386e-08
-3.50276e-12
1.86397e-08
-3.35414e-12
1.86408e-08
-3.19889e-12
1.86418e-08
-2.9882e-12
1.86427e-08
-2.77269e-12
1.86435e-08
-2.51532e-12
1.86443e-08
-2.24914e-12
1.86449e-08
-1.96519e-12
1.86455e-08
-1.67702e-12
1.8646e-08
-1.3875e-12
1.86464e-08
-1.11093e-12
1.86467e-08
-8.42932e-13
1.86469e-08
-5.9648e-13
1.8647e-08
-3.86281e-13
1.86471e-08
-1.67975e-13
1.86471e-08
-4.53025e-14
1.86471e-08
1.45174e-13
1.8647e-08
1.89965e-13
1.86469e-08
3.19744e-13
1.86468e-08
3.45988e-13
1.86467e-08
3.77899e-13
1.86466e-08
4.02846e-13
1.86464e-08
4.02706e-13
1.86463e-08
3.55142e-13
1.86462e-08
3.89302e-13
1.86461e-08
2.78281e-13
1.8646e-08
3.14451e-13
-5.90589e-14
1.31389e-08
-2.52485e-09
1.35135e-08
-1.53807e-09
1.379e-08
-1.08008e-09
1.40093e-08
-8.91989e-10
1.41913e-08
-7.19905e-10
1.43522e-08
-6.47985e-10
1.4499e-08
-5.84291e-10
1.46344e-08
-5.43015e-10
1.47616e-08
-5.07994e-10
1.48816e-08
-4.80079e-10
1.49957e-08
-4.56134e-10
1.51046e-08
-4.35705e-10
1.5209e-08
-4.17584e-10
1.53093e-08
-4.01725e-10
1.54061e-08
-3.87161e-10
1.54994e-08
-3.74209e-10
1.55897e-08
-3.61962e-10
1.56771e-08
-3.50916e-10
1.57618e-08
-3.40232e-10
1.5844e-08
-3.30469e-10
1.59236e-08
-3.2087e-10
1.6001e-08
-3.12001e-10
1.60761e-08
-3.03186e-10
1.6149e-08
-2.9497e-10
1.62198e-08
-2.86747e-10
1.62886e-08
-2.79035e-10
1.63554e-08
-2.7129e-10
1.64203e-08
-2.6399e-10
1.64834e-08
-2.56653e-10
1.65446e-08
-2.49712e-10
1.6604e-08
-2.42741e-10
1.66618e-08
-2.36128e-10
1.67179e-08
-2.29497e-10
1.67723e-08
-2.23192e-10
1.68252e-08
-2.16887e-10
1.68766e-08
-2.10878e-10
1.69264e-08
-2.04886e-10
1.69748e-08
-1.99166e-10
1.70218e-08
-1.93476e-10
1.70674e-08
-1.88038e-10
1.71117e-08
-1.8264e-10
1.71547e-08
-1.77478e-10
1.71965e-08
-1.72361e-10
1.7237e-08
-1.67469e-10
1.72763e-08
-1.62623e-10
1.73145e-08
-1.57992e-10
1.73515e-08
-1.53406e-10
1.73875e-08
-1.49027e-10
1.74224e-08
-1.44691e-10
1.74563e-08
-1.40554e-10
1.74892e-08
-1.36457e-10
1.75212e-08
-1.32551e-10
1.75522e-08
-1.28683e-10
1.75823e-08
-1.24997e-10
1.76115e-08
-1.21347e-10
1.76398e-08
-1.1787e-10
1.76674e-08
-1.14428e-10
1.76941e-08
-1.11149e-10
1.77201e-08
-1.07905e-10
1.77453e-08
-1.04813e-10
1.77697e-08
-1.01755e-10
1.77935e-08
-9.88404e-11
1.78165e-08
-9.59592e-11
1.78389e-08
-9.32125e-11
1.78607e-08
-9.0498e-11
1.78818e-08
-8.79095e-11
1.79023e-08
-8.53523e-11
1.79222e-08
-8.29132e-11
1.79415e-08
-8.05044e-11
1.79603e-08
-7.82057e-11
1.79785e-08
-7.5937e-11
1.79963e-08
-7.37706e-11
1.80134e-08
-7.16339e-11
1.80301e-08
-6.9592e-11
1.80464e-08
-6.75797e-11
1.80621e-08
-6.56548e-11
1.80774e-08
-6.37597e-11
1.80923e-08
-6.19449e-11
1.81067e-08
-6.01602e-11
1.81207e-08
-5.8449e-11
1.81344e-08
-5.6768e-11
1.81476e-08
-5.51545e-11
1.81605e-08
-5.3571e-11
1.81729e-08
-5.20497e-11
1.81851e-08
-5.05576e-11
1.81969e-08
-4.91231e-11
1.82083e-08
-4.7717e-11
1.82194e-08
-4.63645e-11
1.82302e-08
-4.5039e-11
1.82407e-08
-4.37638e-11
1.82509e-08
-4.25142e-11
1.82608e-08
-4.13116e-11
1.82705e-08
-4.01335e-11
1.82798e-08
-3.89994e-11
1.82889e-08
-3.78884e-11
1.82977e-08
-3.68188e-11
1.83063e-08
-3.57711e-11
1.83146e-08
-3.47622e-11
1.83228e-08
-3.3774e-11
1.83306e-08
-3.28224e-11
1.83383e-08
-3.18901e-11
1.83457e-08
-3.09924e-11
1.83529e-08
-3.01131e-11
1.836e-08
-2.92659e-11
1.83668e-08
-2.84366e-11
1.83734e-08
-2.76368e-11
1.83798e-08
-2.68548e-11
1.83861e-08
-2.60996e-11
1.83922e-08
-2.53621e-11
1.83981e-08
-2.46492e-11
1.84038e-08
-2.39534e-11
1.84094e-08
-2.32804e-11
1.84149e-08
-2.26236e-11
1.84201e-08
-2.19888e-11
1.84253e-08
-2.13682e-11
1.84302e-08
-2.07698e-11
1.84351e-08
-2.01832e-11
1.84398e-08
-1.96193e-11
1.84444e-08
-1.90647e-11
1.84488e-08
-1.85334e-11
1.84531e-08
-1.80088e-11
1.84573e-08
-1.75079e-11
1.84614e-08
-1.70117e-11
1.84654e-08
-1.65392e-11
1.84692e-08
-1.60703e-11
1.8473e-08
-1.56243e-11
1.84766e-08
-1.51816e-11
1.84802e-08
-1.47607e-11
1.84836e-08
-1.43432e-11
1.8487e-08
-1.39458e-11
1.84902e-08
-1.35523e-11
1.84934e-08
-1.31764e-11
1.84964e-08
-1.28053e-11
1.84994e-08
-1.24491e-11
1.85023e-08
-1.20988e-11
1.85052e-08
-1.17607e-11
1.85079e-08
-1.14298e-11
1.85106e-08
-1.11093e-11
1.85132e-08
-1.0797e-11
1.85157e-08
-1.04942e-11
1.85181e-08
-1.02004e-11
1.85205e-08
-9.91548e-12
1.85228e-08
-9.64003e-12
1.85251e-08
-9.37278e-12
1.85272e-08
-9.11496e-12
1.85294e-08
-8.86393e-12
1.85314e-08
-8.62196e-12
1.85335e-08
-8.38447e-12
1.85354e-08
-8.15511e-12
1.85373e-08
-7.92754e-12
1.85392e-08
-7.7068e-12
1.8541e-08
-7.48539e-12
1.85427e-08
-7.26982e-12
1.85444e-08
-7.0524e-12
1.8546e-08
-6.84124e-12
1.85476e-08
-6.62915e-12
1.85492e-08
-6.42609e-12
1.85507e-08
-6.22577e-12
1.85521e-08
-6.03898e-12
1.85535e-08
-5.86146e-12
1.85549e-08
-5.70108e-12
1.85562e-08
-5.55885e-12
1.85575e-08
-5.43207e-12
1.85588e-08
-5.33322e-12
1.85601e-08
-5.23897e-12
1.85613e-08
-5.18016e-12
1.85625e-08
-5.10744e-12
1.85637e-08
-5.06844e-12
1.85649e-08
-4.99882e-12
1.85661e-08
-4.94386e-12
1.85673e-08
-4.85522e-12
1.85684e-08
-4.74472e-12
1.85695e-08
-4.61263e-12
1.85706e-08
-4.42155e-12
1.85716e-08
-4.22225e-12
1.85726e-08
-3.9503e-12
1.85735e-08
-3.67139e-12
1.85743e-08
-3.33734e-12
1.8575e-08
-2.9909e-12
1.85757e-08
-2.62002e-12
1.85762e-08
-2.24318e-12
1.85767e-08
-1.8628e-12
1.85771e-08
-1.49911e-12
1.85774e-08
-1.14539e-12
1.85776e-08
-8.18956e-13
1.85778e-08
-5.40262e-13
1.85779e-08
-2.49302e-13
1.85779e-08
-8.44558e-14
1.85779e-08
1.69042e-13
1.85778e-08
2.34159e-13
1.85778e-08
4.04788e-13
1.85776e-08
4.4708e-13
1.85775e-08
4.88808e-13
1.85774e-08
5.26363e-13
1.85773e-08
5.26475e-13
1.85772e-08
4.70869e-13
1.85771e-08
5.06509e-13
1.8577e-08
3.80317e-13
1.85769e-08
3.96581e-13
-1.25917e-13
1.31404e-08
-3.16528e-09
1.3516e-08
-1.91359e-09
1.37923e-08
-1.35641e-09
1.40115e-08
-1.11123e-09
1.41936e-08
-9.0193e-10
1.43545e-08
-8.08902e-10
1.45012e-08
-7.31024e-10
1.46367e-08
-6.7849e-10
1.47639e-08
-6.35247e-10
1.48839e-08
-6.00051e-10
1.4998e-08
-5.70272e-10
1.51069e-08
-5.44597e-10
1.52113e-08
-5.21945e-10
1.53116e-08
-5.01997e-10
1.54081e-08
-4.83706e-10
1.55013e-08
-4.67366e-10
1.55912e-08
-4.51918e-10
1.56782e-08
-4.37933e-10
1.57624e-08
-4.24408e-10
1.5844e-08
-4.12012e-10
1.59229e-08
-3.99833e-10
1.59995e-08
-3.88556e-10
1.60737e-08
-3.77361e-10
1.61456e-08
-3.66912e-10
1.62153e-08
-3.56475e-10
1.6283e-08
-3.46676e-10
1.63485e-08
-3.36859e-10
1.64122e-08
-3.27603e-10
1.64738e-08
-3.18321e-10
1.65336e-08
-3.09541e-10
1.65917e-08
-3.00743e-10
1.66479e-08
-2.92399e-10
1.67025e-08
-2.84053e-10
1.67554e-08
-2.76119e-10
1.68067e-08
-2.68201e-10
1.68565e-08
-2.6066e-10
1.69048e-08
-2.53153e-10
1.69516e-08
-2.45991e-10
1.6997e-08
-2.38879e-10
1.7041e-08
-2.32086e-10
1.70838e-08
-2.25352e-10
1.71252e-08
-2.18918e-10
1.71654e-08
-2.12547e-10
1.72044e-08
-2.06459e-10
1.72422e-08
-2.00435e-10
1.72789e-08
-1.94682e-10
1.73145e-08
-1.8899e-10
1.7349e-08
-1.83558e-10
1.73825e-08
-1.78183e-10
1.7415e-08
-1.73057e-10
1.74465e-08
-1.67985e-10
1.74771e-08
-1.63151e-10
1.75068e-08
-1.58368e-10
1.75356e-08
-1.5381e-10
1.75636e-08
-1.49301e-10
1.75907e-08
-1.45005e-10
1.7617e-08
-1.40756e-10
1.76426e-08
-1.36708e-10
1.76674e-08
-1.32705e-10
1.76915e-08
-1.28891e-10
1.77148e-08
-1.25121e-10
1.77375e-08
-1.21528e-10
1.77595e-08
-1.17977e-10
1.77809e-08
-1.14593e-10
1.78017e-08
-1.11249e-10
1.78218e-08
-1.08061e-10
1.78414e-08
-1.04913e-10
1.78604e-08
-1.01909e-10
1.78788e-08
-9.89446e-11
1.78967e-08
-9.61153e-11
1.79141e-08
-9.33239e-11
1.7931e-08
-9.06581e-11
1.79474e-08
-8.80299e-11
1.79633e-08
-8.55178e-11
1.79788e-08
-8.30432e-11
1.79938e-08
-8.06756e-11
1.80084e-08
-7.83456e-11
1.80226e-08
-7.61139e-11
1.80363e-08
-7.39198e-11
1.80497e-08
-7.18159e-11
1.80627e-08
-6.97497e-11
1.80753e-08
-6.77662e-11
1.80875e-08
-6.582e-11
1.80994e-08
-6.395e-11
1.8111e-08
-6.21164e-11
1.81222e-08
-6.03534e-11
1.81331e-08
-5.86254e-11
1.81437e-08
-5.69633e-11
1.8154e-08
-5.53346e-11
1.8164e-08
-5.37676e-11
1.81737e-08
-5.22322e-11
1.81832e-08
-5.07546e-11
1.81924e-08
-4.9307e-11
1.82013e-08
-4.79136e-11
1.82099e-08
-4.65487e-11
1.82183e-08
-4.52345e-11
1.82265e-08
-4.39473e-11
1.82345e-08
-4.27078e-11
1.82422e-08
-4.14937e-11
1.82497e-08
-4.03247e-11
1.8257e-08
-3.91794e-11
1.82641e-08
-3.80765e-11
1.82709e-08
-3.69963e-11
1.82776e-08
-3.59555e-11
1.82841e-08
-3.49367e-11
1.82905e-08
-3.39542e-11
1.82966e-08
-3.29935e-11
1.83026e-08
-3.20658e-11
1.83084e-08
-3.11598e-11
1.8314e-08
-3.0284e-11
1.83195e-08
-2.94292e-11
1.83248e-08
-2.86025e-11
1.833e-08
-2.77956e-11
1.8335e-08
-2.70157e-11
1.83399e-08
-2.62534e-11
1.83446e-08
-2.55182e-11
1.83492e-08
-2.47976e-11
1.83537e-08
-2.41049e-11
1.83581e-08
-2.34235e-11
1.83623e-08
-2.27708e-11
1.83664e-08
-2.21264e-11
1.83704e-08
-2.1511e-11
1.83743e-08
-2.09016e-11
1.83781e-08
-2.0321e-11
1.83818e-08
-1.9745e-11
1.83854e-08
-1.9197e-11
1.83888e-08
-1.86533e-11
1.83922e-08
-1.8136e-11
1.83955e-08
-1.76233e-11
1.83987e-08
-1.71348e-11
1.84018e-08
-1.66515e-11
1.84048e-08
-1.61896e-11
1.84077e-08
-1.57339e-11
1.84106e-08
-1.52961e-11
1.84133e-08
-1.48659e-11
1.8416e-08
-1.44505e-11
1.84186e-08
-1.4044e-11
1.84212e-08
-1.36502e-11
1.84236e-08
-1.32666e-11
1.8426e-08
-1.28944e-11
1.84284e-08
-1.25335e-11
1.84306e-08
-1.21833e-11
1.84329e-08
-1.18448e-11
1.8435e-08
-1.15163e-11
1.84371e-08
-1.11995e-11
1.84391e-08
-1.0891e-11
1.84411e-08
-1.05937e-11
1.8443e-08
-1.0302e-11
1.84449e-08
-1.00204e-11
1.84467e-08
-9.74096e-12
1.84484e-08
-9.47007e-12
1.84502e-08
-9.1984e-12
1.84518e-08
-8.93398e-12
1.84534e-08
-8.6672e-12
1.8455e-08
-8.40811e-12
1.84565e-08
-8.14767e-12
1.8458e-08
-7.8982e-12
1.84594e-08
-7.65173e-12
1.84608e-08
-7.42165e-12
1.84621e-08
-7.20257e-12
1.84634e-08
-7.00424e-12
1.84647e-08
-6.82796e-12
1.84659e-08
-6.67046e-12
1.84672e-08
-6.54727e-12
1.84684e-08
-6.42993e-12
1.84695e-08
-6.35626e-12
1.84707e-08
-6.26648e-12
1.84718e-08
-6.21807e-12
1.8473e-08
-6.13399e-12
1.84741e-08
-6.06748e-12
1.84752e-08
-5.96205e-12
1.84763e-08
-5.82929e-12
1.84773e-08
-5.67187e-12
1.84784e-08
-5.44202e-12
1.84793e-08
-5.20248e-12
1.84803e-08
-4.87418e-12
1.84811e-08
-4.53658e-12
1.84819e-08
-4.1313e-12
1.84827e-08
-3.70986e-12
1.84833e-08
-3.25737e-12
1.84838e-08
-2.79695e-12
1.84843e-08
-2.33048e-12
1.84847e-08
-1.88387e-12
1.8485e-08
-1.44831e-12
1.84852e-08
-1.04489e-12
1.84854e-08
-7.00212e-13
1.84855e-08
-3.38809e-13
1.84855e-08
-1.32208e-13
1.84855e-08
1.82021e-13
1.84855e-08
2.69339e-13
1.84854e-08
4.78593e-13
1.84853e-08
5.39342e-13
1.84852e-08
5.9036e-13
1.84851e-08
6.42163e-13
1.8485e-08
6.42092e-13
1.84849e-08
5.82156e-13
1.84848e-08
6.16464e-13
1.84847e-08
4.7921e-13
1.84846e-08
4.78385e-13
-1.95222e-13
1.31424e-08
-3.80764e-09
1.35191e-08
-2.2903e-09
1.37952e-08
-1.63258e-09
1.40144e-08
-1.33036e-09
1.41964e-08
-1.08392e-09
1.43573e-08
-9.69815e-10
1.4504e-08
-8.77787e-10
1.46395e-08
-8.14e-10
1.47668e-08
-7.62543e-10
1.48868e-08
-7.20053e-10
1.5001e-08
-6.8442e-10
1.51099e-08
-6.53456e-10
1.52141e-08
-6.26217e-10
1.53142e-08
-6.02102e-10
1.54105e-08
-5.79995e-10
1.55033e-08
-5.6016e-10
1.55928e-08
-5.41398e-10
1.56792e-08
-5.24349e-10
1.57627e-08
-5.07858e-10
1.58433e-08
-4.927e-10
1.59213e-08
-4.77817e-10
1.59968e-08
-4.64005e-10
1.60697e-08
-4.50316e-10
1.61403e-08
-4.37521e-10
1.62086e-08
-4.24769e-10
1.62747e-08
-4.12789e-10
1.63387e-08
-4.00817e-10
1.64006e-08
-3.89527e-10
1.64605e-08
-3.78237e-10
1.65186e-08
-3.67559e-10
1.65747e-08
-3.56888e-10
1.66291e-08
-3.46772e-10
1.66817e-08
-3.36679e-10
1.67327e-08
-3.27091e-10
1.6782e-08
-3.17545e-10
1.68298e-08
-3.08459e-10
1.68761e-08
-2.99435e-10
1.69209e-08
-2.90831e-10
1.69644e-08
-2.82303e-10
1.70064e-08
-2.74163e-10
1.70472e-08
-2.66109e-10
1.70867e-08
-2.58417e-10
1.7125e-08
-2.50813e-10
1.71621e-08
-2.43552e-10
1.7198e-08
-2.36376e-10
1.72328e-08
-2.29527e-10
1.72666e-08
-2.22759e-10
1.72994e-08
-2.16303e-10
1.73311e-08
-2.09922e-10
1.73619e-08
-2.0384e-10
1.73917e-08
-1.97827e-10
1.74207e-08
-1.92098e-10
1.74487e-08
-1.86434e-10
1.7476e-08
-1.81039e-10
1.75024e-08
-1.75706e-10
1.7528e-08
-1.70626e-10
1.75528e-08
-1.65605e-10
1.7577e-08
-1.60822e-10
1.76004e-08
-1.56097e-10
1.76231e-08
-1.51594e-10
1.76451e-08
-1.47146e-10
1.76665e-08
-1.42907e-10
1.76872e-08
-1.38721e-10
1.77073e-08
-1.3473e-10
1.77269e-08
-1.3079e-10
1.77459e-08
-1.27033e-10
1.77643e-08
-1.23325e-10
1.77821e-08
-1.19788e-10
1.77995e-08
-1.16297e-10
1.78163e-08
-1.12966e-10
1.78327e-08
-1.09681e-10
1.78486e-08
-1.06543e-10
1.7864e-08
-1.03451e-10
1.7879e-08
-1.00495e-10
1.78935e-08
-9.75843e-11
1.79077e-08
-9.47993e-11
1.79214e-08
-9.20592e-11
1.79347e-08
-8.94346e-11
1.79476e-08
-8.68549e-11
1.79602e-08
-8.43811e-11
1.79724e-08
-8.19521e-11
1.79842e-08
-7.96203e-11
1.79958e-08
-7.73327e-11
1.80069e-08
-7.51346e-11
1.80178e-08
-7.29796e-11
1.80284e-08
-7.09076e-11
1.80386e-08
-6.88769e-11
1.80486e-08
-6.69237e-11
1.80582e-08
-6.50098e-11
1.80676e-08
-6.31684e-11
1.80768e-08
-6.13644e-11
1.80856e-08
-5.96282e-11
1.80943e-08
-5.79274e-11
1.81026e-08
-5.62903e-11
1.81108e-08
-5.46866e-11
1.81187e-08
-5.31427e-11
1.81264e-08
-5.16304e-11
1.81338e-08
-5.01743e-11
1.81411e-08
-4.8748e-11
1.81481e-08
-4.73746e-11
1.8155e-08
-4.60292e-11
1.81617e-08
-4.47336e-11
1.81681e-08
-4.34645e-11
1.81744e-08
-4.22419e-11
1.81805e-08
-4.10451e-11
1.81865e-08
-3.98909e-11
1.81922e-08
-3.87623e-11
1.81978e-08
-3.76727e-11
1.82033e-08
-3.66083e-11
1.82086e-08
-3.55795e-11
1.82137e-08
-3.45753e-11
1.82187e-08
-3.36043e-11
1.82236e-08
-3.26562e-11
1.82283e-08
-3.17403e-11
1.82329e-08
-3.08446e-11
1.82374e-08
-2.99812e-11
1.82417e-08
-2.91345e-11
1.82459e-08
-2.83209e-11
1.825e-08
-2.75203e-11
1.8254e-08
-2.67536e-11
1.82579e-08
-2.59966e-11
1.82616e-08
-2.52737e-11
1.82653e-08
-2.45578e-11
1.82688e-08
-2.38757e-11
1.82723e-08
-2.31991e-11
1.82756e-08
-2.25553e-11
1.82789e-08
-2.19165e-11
1.82821e-08
-2.13089e-11
1.82852e-08
-2.07065e-11
1.82882e-08
-2.01326e-11
1.82911e-08
-1.95649e-11
1.82939e-08
-1.90222e-11
1.82967e-08
-1.84868e-11
1.82993e-08
-1.79726e-11
1.83019e-08
-1.74671e-11
1.83045e-08
-1.69792e-11
1.83069e-08
-1.65017e-11
1.83093e-08
-1.6039e-11
1.83116e-08
-1.55883e-11
1.83139e-08
-1.51511e-11
1.83161e-08
-1.47269e-11
1.83182e-08
-1.43155e-11
1.83203e-08
-1.39176e-11
1.83223e-08
-1.35316e-11
1.83243e-08
-1.31592e-11
1.83262e-08
-1.27968e-11
1.8328e-08
-1.24474e-11
1.83298e-08
-1.21048e-11
1.83316e-08
-1.1774e-11
1.83333e-08
-1.1446e-11
1.83349e-08
-1.1128e-11
1.83366e-08
-1.08093e-11
1.83381e-08
-1.04989e-11
1.83396e-08
-1.01859e-11
1.83411e-08
-9.88176e-12
1.83425e-08
-9.57603e-12
1.83439e-08
-9.28281e-12
1.83453e-08
-8.993e-12
1.83466e-08
-8.72195e-12
1.83478e-08
-8.46367e-12
1.83491e-08
-8.22925e-12
1.83502e-08
-8.02066e-12
1.83514e-08
-7.83378e-12
1.83526e-08
-7.6873e-12
1.83537e-08
-7.54784e-12
1.83548e-08
-7.45981e-12
1.83559e-08
-7.3539e-12
1.83569e-08
-7.29645e-12
1.8358e-08
-7.19919e-12
1.83591e-08
-7.12206e-12
1.83601e-08
-7.00175e-12
1.83611e-08
-6.84891e-12
1.83621e-08
-6.66893e-12
1.83631e-08
-6.40406e-12
1.8364e-08
-6.12815e-12
1.83649e-08
-5.74855e-12
1.83657e-08
-5.35728e-12
1.83665e-08
-4.88655e-12