/*--------------------------------*- C++ -*----------------------------------*\
| =========                 |                                                 |
| \\      /  F ield         | OpenFOAM: The Open Source CFD Toolbox           |
|  \\    /   O peration     | Version:  2412                                  |
|   \\  /    A nd           | Website:  www.openfoam.com                      |
|    \\/     M anipulation  |                                                 |
\*---------------------------------------------------------------------------*/
FoamFile
{
    version     2.0;
    format      ascii;
    arch        "LSB;label=32;scalar=64";
    class       volVectorField;
    location    "783";
    object      U;
}
// * * * * * * * * * * * * * * * * * * * * * * * * * * * * * * * * * * * * * //

dimensions      [0 1 -1 0 0 0 0];

internalField   nonuniform List<vector> 
8000
(
(0.0500234 -4.09681e-05 0)
(0.0544616 -2.79098e-05 0)
(0.0540754 -1.6496e-05 0)
(0.0559644 -1.56419e-05 0)
(0.0562345 -1.15171e-05 0)
(0.0571924 -1.10274e-05 0)
(0.0576441 -9.59063e-06 0)
(0.0582971 -9.11459e-06 0)
(0.0587649 -8.41668e-06 0)
(0.0592932 -8.01747e-06 0)
(0.0597359 -7.58277e-06 0)
(0.0601989 -7.26458e-06 0)
(0.0606109 -6.95199e-06 0)
(0.061032 -6.69703e-06 0)
(0.0614158 -6.45249e-06 0)
(0.061806 -6.24257e-06 0)
(0.0621655 -6.0402e-06 0)
(0.0625308 -5.86138e-06 0)
(0.0628692 -5.68664e-06 0)
(0.0632132 -5.52917e-06 0)
(0.0635328 -5.37317e-06 0)
(0.0638579 -5.23051e-06 0)
(0.0641604 -5.08764e-06 0)
(0.0644682 -4.95553e-06 0)
(0.0647549 -4.82229e-06 0)
(0.0650466 -4.69806e-06 0)
(0.0653184 -4.57228e-06 0)
(0.0655949 -4.45431e-06 0)
(0.0658526 -4.33474e-06 0)
(0.0661146 -4.22206e-06 0)
(0.0663588 -4.10797e-06 0)
(0.066607 -4.00006e-06 0)
(0.0668383 -3.89105e-06 0)
(0.0670734 -3.78765e-06 0)
(0.0672923 -3.68349e-06 0)
(0.0675148 -3.58446e-06 0)
(0.0677218 -3.48503e-06 0)
(0.0679324 -3.3903e-06 0)
(0.0681281 -3.29549e-06 0)
(0.0683272 -3.20505e-06 0)
(0.0685121 -3.11475e-06 0)
(0.0687003 -3.02857e-06 0)
(0.0688749 -2.94267e-06 0)
(0.0690528 -2.8607e-06 0)
(0.0692176 -2.77908e-06 0)
(0.0693856 -2.70125e-06 0)
(0.0695412 -2.62379e-06 0)
(0.0696999 -2.55e-06 0)
(0.0698466 -2.47657e-06 0)
(0.0699964 -2.40669e-06 0)
(0.0701348 -2.33715e-06 0)
(0.0702763 -2.27103e-06 0)
(0.0704068 -2.20525e-06 0)
(0.0705404 -2.14273e-06 0)
(0.0706634 -2.08057e-06 0)
(0.0707895 -2.02149e-06 0)
(0.0709054 -1.96278e-06 0)
(0.0710245 -1.90697e-06 0)
(0.0711338 -1.85156e-06 0)
(0.0712462 -1.79888e-06 0)
(0.0713492 -1.7466e-06 0)
(0.0714553 -1.69688e-06 0)
(0.0715524 -1.64757e-06 0)
(0.0716525 -1.60067e-06 0)
(0.071744 -1.55417e-06 0)
(0.0718386 -1.50993e-06 0)
(0.0719248 -1.4661e-06 0)
(0.0720141 -1.42438e-06 0)
(0.0720953 -1.38306e-06 0)
(0.0721797 -1.34372e-06 0)
(0.0722562 -1.30478e-06 0)
(0.0723359 -1.26769e-06 0)
(0.072408 -1.231e-06 0)
(0.0724833 -1.19601e-06 0)
(0.0725512 -1.16145e-06 0)
(0.0726223 -1.12845e-06 0)
(0.0726863 -1.09589e-06 0)
(0.0727535 -1.06477e-06 0)
(0.0728137 -1.0341e-06 0)
(0.0728773 -1.00475e-06 0)
(0.072934 -9.75849e-07 0)
(0.0729941 -9.48164e-07 0)
(0.0730475 -9.20936e-07 0)
(0.0731044 -8.94825e-07 0)
(0.0731547 -8.69165e-07 0)
(0.0732084 -8.44542e-07 0)
(0.0732558 -8.20354e-07 0)
(0.0733066 -7.97135e-07 0)
(0.0733512 -7.74331e-07 0)
(0.0733993 -7.52436e-07 0)
(0.0734413 -7.30933e-07 0)
(0.0734868 -7.10287e-07 0)
(0.0735263 -6.90009e-07 0)
(0.0735694 -6.70538e-07 0)
(0.0736066 -6.51413e-07 0)
(0.0736474 -6.3305e-07 0)
(0.0736824 -6.1501e-07 0)
(0.073721 -5.97692e-07 0)
(0.073754 -5.80673e-07 0)
(0.0737905 -5.6434e-07 0)
(0.0738215 -5.48281e-07 0)
(0.0738561 -5.32876e-07 0)
(0.0738853 -5.17723e-07 0)
(0.0739181 -5.03189e-07 0)
(0.0739456 -4.88894e-07 0)
(0.0739766 -4.75178e-07 0)
(0.0740025 -4.61693e-07 0)
(0.0740319 -4.48747e-07 0)
(0.0740562 -4.36025e-07 0)
(0.0740841 -4.23805e-07 0)
(0.0741069 -4.118e-07 0)
(0.0741333 -4.0027e-07 0)
(0.0741549 -3.88932e-07 0)
(0.0741799 -3.78059e-07 0)
(0.0742001 -3.67344e-07 0)
(0.0742239 -3.57098e-07 0)
(0.0742429 -3.46967e-07 0)
(0.0742654 -3.37316e-07 0)
(0.0742833 -3.27734e-07 0)
(0.0743046 -3.18642e-07 0)
(0.0743214 -3.09576e-07 0)
(0.0743417 -3.01008e-07 0)
(0.0743575 -2.92431e-07 0)
(0.0743767 -2.84351e-07 0)
(0.0743915 -2.76243e-07 0)
(0.0744097 -2.6862e-07 0)
(0.0744237 -2.60965e-07 0)
(0.0744409 -2.53772e-07 0)
(0.0744541 -2.46552e-07 0)
(0.0744705 -2.39761e-07 0)
(0.0744828 -2.32954e-07 0)
(0.0744983 -2.26531e-07 0)
(0.0745099 -2.20109e-07 0)
(0.0745247 -2.14021e-07 0)
(0.0745356 -2.07955e-07 0)
(0.0745496 -2.02179e-07 0)
(0.0745598 -1.96449e-07 0)
(0.0745731 -1.90975e-07 0)
(0.0745826 -1.85572e-07 0)
(0.0745953 -1.80405e-07 0)
(0.0746042 -1.75324e-07 0)
(0.0746163 -1.70469e-07 0)
(0.0746247 -1.65705e-07 0)
(0.0746361 -1.61156e-07 0)
(0.074644 -1.56691e-07 0)
(0.0746548 -1.52417e-07 0)
(0.0746622 -1.48216e-07 0)
(0.0746726 -1.44167e-07 0)
(0.0746795 -1.4017e-07 0)
(0.0746893 -1.36279e-07 0)
(0.0746958 -1.32416e-07 0)
(0.0747052 -1.28624e-07 0)
(0.0747112 -1.24842e-07 0)
(0.0747201 -1.21121e-07 0)
(0.0747257 -1.17424e-07 0)
(0.0747342 -1.13816e-07 0)
(0.0747394 -1.10287e-07 0)
(0.0747474 -1.06919e-07 0)
(0.0747522 -1.03717e-07 0)
(0.0747598 -1.00788e-07 0)
(0.0747643 -9.80919e-08 0)
(0.0747715 -9.58019e-08 0)
(0.0747757 -9.37175e-08 0)
(0.0747827 -9.21691e-08 0)
(0.0747868 -9.06322e-08 0)
(0.0747935 -8.97222e-08 0)
(0.0747975 -8.84789e-08 0)
(0.0748041 -8.78202e-08 0)
(0.074808 -8.64949e-08 0)
(0.0748144 -8.54481e-08 0)
(0.0748182 -8.3644e-08 0)
(0.0748244 -8.15205e-08 0)
(0.074828 -7.88653e-08 0)
(0.0748339 -7.52506e-08 0)
(0.074837 -7.14172e-08 0)
(0.0748425 -6.63701e-08 0)
(0.074845 -6.12127e-08 0)
(0.0748499 -5.51617e-08 0)
(0.0748517 -4.89254e-08 0)
(0.0748558 -4.2397e-08 0)
(0.0748569 -3.57507e-08 0)
(0.0748601 -2.92401e-08 0)
(0.0748605 -2.29678e-08 0)
(0.0748629 -1.7045e-08 0)
(0.0748626 -1.15882e-08 0)
(0.0748644 -7.00565e-09 0)
(0.0748635 -2.29954e-09 0)
(0.0748647 2.91455e-10 0)
(0.0748635 4.37015e-09 0)
(0.0748642 5.09901e-09 0)
(0.0748629 7.98386e-09 0)
(0.0748633 8.16677e-09 0)
(0.0748619 8.91587e-09 0)
(0.0748622 9.24303e-09 0)
(0.0748608 9.1331e-09 0)
(0.0748611 7.8728e-09 0)
(0.0748599 8.96179e-09 0)
(0.0748601 5.37767e-09 0)
(0.0748592 9.15771e-09 0)
(0.074859 2.10749e-09 0)
(0.0500226 -0.000123995 0)
(0.0544627 -8.0887e-05 0)
(0.0540774 -5.14146e-05 0)
(0.0559662 -4.59769e-05 0)
(0.0562368 -3.51685e-05 0)
(0.0571944 -3.2805e-05 0)
(0.0576465 -2.89622e-05 0)
(0.0582993 -2.72669e-05 0)
(0.0587673 -2.53151e-05 0)
(0.0592954 -2.40342e-05 0)
(0.0597383 -2.27744e-05 0)
(0.0602012 -2.17923e-05 0)
(0.0606133 -2.08685e-05 0)
(0.0610343 -2.00934e-05 0)
(0.0614182 -1.93639e-05 0)
(0.0618082 -1.87294e-05 0)
(0.0621676 -1.8123e-05 0)
(0.0625325 -1.75835e-05 0)
(0.0628707 -1.70587e-05 0)
(0.0632141 -1.65837e-05 0)
(0.0635333 -1.61147e-05 0)
(0.0638576 -1.56844e-05 0)
(0.0641596 -1.52547e-05 0)
(0.0644664 -1.48562e-05 0)
(0.0647524 -1.44554e-05 0)
(0.0650429 -1.40808e-05 0)
(0.0653137 -1.37025e-05 0)
(0.0655889 -1.3347e-05 0)
(0.0658455 -1.29875e-05 0)
(0.0661061 -1.26481e-05 0)
(0.066349 -1.23052e-05 0)
(0.0665958 -1.19804e-05 0)
(0.0668257 -1.1653e-05 0)
(0.0670592 -1.13419e-05 0)
(0.0672767 -1.10292e-05 0)
(0.0674976 -1.07315e-05 0)
(0.0677031 -1.04331e-05 0)
(0.067912 -1.01485e-05 0)
(0.0681062 -9.86411e-06 0)
(0.0683037 -9.59252e-06 0)
(0.0684871 -9.32179e-06 0)
(0.0686737 -9.06311e-06 0)
(0.0688468 -8.80567e-06 0)
(0.069023 -8.55974e-06 0)
(0.0691863 -8.31522e-06 0)
(0.0693528 -8.0818e-06 0)
(0.0695069 -7.84982e-06 0)
(0.069664 -7.62857e-06 0)
(0.0698093 -7.40873e-06 0)
(0.0699577 -7.19926e-06 0)
(0.0700947 -6.99114e-06 0)
(0.0702348 -6.79298e-06 0)
(0.0703639 -6.59616e-06 0)
(0.0704961 -6.40884e-06 0)
(0.0706179 -6.22285e-06 0)
(0.0707427 -6.04587e-06 0)
(0.0708574 -5.87025e-06 0)
(0.0709752 -5.70313e-06 0)
(0.0710833 -5.53738e-06 0)
(0.0711945 -5.37963e-06 0)
(0.0712964 -5.22328e-06 0)
(0.0714013 -5.07443e-06 0)
(0.0714974 -4.92697e-06 0)
(0.0715964 -4.78657e-06 0)
(0.0716869 -4.64753e-06 0)
(0.0717804 -4.51512e-06 0)
(0.0718657 -4.38406e-06 0)
(0.071954 -4.2592e-06 0)
(0.0720343 -4.13567e-06 0)
(0.0721177 -4.01794e-06 0)
(0.0721934 -3.90154e-06 0)
(0.0722722 -3.79053e-06 0)
(0.0723435 -3.68086e-06 0)
(0.0724179 -3.57617e-06 0)
(0.0724851 -3.47285e-06 0)
(0.0725554 -3.37413e-06 0)
(0.0726186 -3.2768e-06 0)
(0.0726851 -3.18369e-06 0)
(0.0727447 -3.092e-06 0)
(0.0728075 -3.00418e-06 0)
(0.0728636 -2.91781e-06 0)
(0.072923 -2.83498e-06 0)
(0.0729758 -2.7536e-06 0)
(0.073032 -2.67549e-06 0)
(0.0730817 -2.59879e-06 0)
(0.0731348 -2.52513e-06 0)
(0.0731817 -2.45284e-06 0)
(0.0732319 -2.38338e-06 0)
(0.073276 -2.31523e-06 0)
(0.0733235 -2.24973e-06 0)
(0.0733651 -2.18547e-06 0)
(0.07341 -2.1237e-06 0)
(0.0734491 -2.0631e-06 0)
(0.0734917 -2.00485e-06 0)
(0.0735285 -1.9477e-06 0)
(0.0735688 -1.89276e-06 0)
(0.0736034 -1.83886e-06 0)
(0.0736415 -1.78704e-06 0)
(0.0736741 -1.73619e-06 0)
(0.0737103 -1.68732e-06 0)
(0.0737409 -1.63934e-06 0)
(0.0737751 -1.59324e-06 0)
(0.073804 -1.54798e-06 0)
(0.0738364 -1.50448e-06 0)
(0.0738636 -1.46179e-06 0)
(0.0738943 -1.42073e-06 0)
(0.0739198 -1.38046e-06 0)
(0.0739489 -1.3417e-06 0)
(0.0739729 -1.30372e-06 0)
(0.0740005 -1.26713e-06 0)
(0.0740231 -1.23129e-06 0)
(0.0740492 -1.19676e-06 0)
(0.0740705 -1.16291e-06 0)
(0.0740952 -1.13035e-06 0)
(0.0741152 -1.09837e-06 0)
(0.0741387 -1.06768e-06 0)
(0.0741575 -1.03745e-06 0)
(0.0741797 -1.00853e-06 0)
(0.0741974 -9.79939e-07 0)
(0.0742185 -9.52698e-07 0)
(0.0742351 -9.25651e-07 0)
(0.0742551 -8.99974e-07 0)
(0.0742708 -8.74391e-07 0)
(0.0742897 -8.50172e-07 0)
(0.0743044 -8.25988e-07 0)
(0.0743224 -8.03137e-07 0)
(0.0743362 -7.80306e-07 0)
(0.0743533 -7.58742e-07 0)
(0.0743663 -7.3721e-07 0)
(0.0743825 -7.16849e-07 0)
(0.0743947 -6.96552e-07 0)
(0.07441 -6.77295e-07 0)
(0.0744215 -6.58147e-07 0)
(0.0744361 -6.39896e-07 0)
(0.0744468 -6.21815e-07 0)
(0.0744607 -6.04496e-07 0)
(0.0744708 -5.87417e-07 0)
(0.0744839 -5.71001e-07 0)
(0.0744934 -5.54893e-07 0)
(0.0745059 -5.3939e-07 0)
(0.0745147 -5.2424e-07 0)
(0.0745266 -5.09668e-07 0)
(0.0745349 -4.95463e-07 0)
(0.0745462 -4.81802e-07 0)
(0.074554 -4.68498e-07 0)
(0.0745647 -4.55665e-07 0)
(0.0745721 -4.4316e-07 0)
(0.0745823 -4.31006e-07 0)
(0.0745891 -4.19125e-07 0)
(0.0745989 -4.07458e-07 0)
(0.0746053 -3.95994e-07 0)
(0.0746145 -3.84628e-07 0)
(0.0746205 -3.73416e-07 0)
(0.0746293 -3.6226e-07 0)
(0.0746349 -3.51289e-07 0)
(0.0746432 -3.40445e-07 0)
(0.0746484 -3.29945e-07 0)
(0.0746563 -3.19779e-07 0)
(0.074661 -3.10205e-07 0)
(0.0746685 -3.01301e-07 0)
(0.074673 -2.93183e-07 0)
(0.0746801 -2.86159e-07 0)
(0.0746843 -2.79832e-07 0)
(0.0746912 -2.75036e-07 0)
(0.0746952 -2.70358e-07 0)
(0.0747018 -2.67534e-07 0)
(0.0747057 -2.63814e-07 0)
(0.0747122 -2.61843e-07 0)
(0.0747161 -2.58023e-07 0)
(0.0747224 -2.55011e-07 0)
(0.0747261 -2.49925e-07 0)
(0.0747323 -2.43814e-07 0)
(0.0747358 -2.36296e-07 0)
(0.0747417 -2.25828e-07 0)
(0.0747448 -2.14806e-07 0)
(0.0747502 -2.00092e-07 0)
(0.0747528 -1.85053e-07 0)
(0.0747576 -1.67267e-07 0)
(0.0747595 -1.48906e-07 0)
(0.0747636 -1.29522e-07 0)
(0.0747648 -1.09819e-07 0)
(0.0747681 -9.029e-08 0)
(0.0747686 -7.15546e-08 0)
(0.0747711 -5.36509e-08 0)
(0.0747709 -3.71673e-08 0)
(0.0747727 -2.324e-08 0)
(0.0747719 -8.83624e-09 0)
(0.0747731 -8.63255e-10 0)
(0.074772 1.16668e-08 0)
(0.0747727 1.42031e-08 0)
(0.0747715 2.29122e-08 0)
(0.0747719 2.39963e-08 0)
(0.0747706 2.62128e-08 0)
(0.0747709 2.7459e-08 0)
(0.0747695 2.73627e-08 0)
(0.0747698 2.36836e-08 0)
(0.0747686 2.67497e-08 0)
(0.0747688 1.70897e-08 0)
(0.0747678 2.48292e-08 0)
(0.074768 2.58642e-09 0)
(0.0500222 -0.000208757 0)
(0.0544671 -0.000130416 0)
(0.0540819 -8.85691e-05 0)
(0.0559702 -7.51492e-05 0)
(0.0562413 -5.9533e-05 0)
(0.0571986 -5.42402e-05 0)
(0.0576511 -4.85509e-05 0)
(0.0583036 -4.53211e-05 0)
(0.0587719 -4.22859e-05 0)
(0.0592999 -4.00252e-05 0)
(0.0597431 -3.79937e-05 0)
(0.0602058 -3.63149e-05 0)
(0.0606182 -3.47963e-05 0)
(0.0610389 -3.3488e-05 0)
(0.0614229 -3.22773e-05 0)
(0.0618124 -3.12106e-05 0)
(0.0621716 -3.0199e-05 0)
(0.0625358 -2.92924e-05 0)
(0.0628734 -2.84142e-05 0)
(0.0632158 -2.76158e-05 0)
(0.063534 -2.68294e-05 0)
(0.0638569 -2.61056e-05 0)
(0.0641575 -2.53845e-05 0)
(0.0644625 -2.47142e-05 0)
(0.0647467 -2.40415e-05 0)
(0.065035 -2.34116e-05 0)
(0.0653038 -2.27771e-05 0)
(0.0655764 -2.21797e-05 0)
(0.0658306 -2.15772e-05 0)
(0.0660885 -2.10076e-05 0)
(0.0663288 -2.04335e-05 0)
(0.0665726 -1.98891e-05 0)
(0.0667997 -1.93415e-05 0)
(0.0670301 -1.88207e-05 0)
(0.0672446 -1.82984e-05 0)
(0.0674623 -1.78006e-05 0)
(0.0676648 -1.73028e-05 0)
(0.0678705 -1.68275e-05 0)
(0.0680616 -1.63535e-05 0)
(0.0682558 -1.59004e-05 0)
(0.0684362 -1.54496e-05 0)
(0.0686195 -1.50185e-05 0)
(0.0687896 -1.45903e-05 0)
(0.0689626 -1.41808e-05 0)
(0.069123 -1.37743e-05 0)
(0.0692863 -1.3386e-05 0)
(0.0694375 -1.30006e-05 0)
(0.0695916 -1.26328e-05 0)
(0.0697341 -1.22678e-05 0)
(0.0698795 -1.19197e-05 0)
(0.0700137 -1.15745e-05 0)
(0.070151 -1.12454e-05 0)
(0.0702775 -1.0919e-05 0)
(0.070407 -1.0608e-05 0)
(0.0705261 -1.02998e-05 0)
(0.0706483 -1.00061e-05 0)
(0.0707606 -9.71511e-06 0)
(0.0708759 -9.43792e-06 0)
(0.0709817 -9.16338e-06 0)
(0.0710905 -8.90182e-06 0)
(0.0711902 -8.64289e-06 0)
(0.0712928 -8.39617e-06 0)
(0.0713867 -8.15203e-06 0)
(0.0714837 -7.91937e-06 0)
(0.0715721 -7.68922e-06 0)
(0.0716636 -7.46986e-06 0)
(0.0717469 -7.25294e-06 0)
(0.0718333 -7.04613e-06 0)
(0.0719118 -6.84172e-06 0)
(0.0719934 -6.64675e-06 0)
(0.0720673 -6.45415e-06 0)
(0.0721443 -6.27033e-06 0)
(0.072214 -6.08889e-06 0)
(0.0722868 -5.91557e-06 0)
(0.0723524 -5.74466e-06 0)
(0.0724211 -5.58123e-06 0)
(0.0724829 -5.42023e-06 0)
(0.0725479 -5.26611e-06 0)
(0.0726061 -5.11446e-06 0)
(0.0726675 -4.96912e-06 0)
(0.0727223 -4.82626e-06 0)
(0.0727803 -4.68919e-06 0)
(0.0728319 -4.5546e-06 0)
(0.0728868 -4.42533e-06 0)
(0.0729354 -4.2985e-06 0)
(0.0729873 -4.1766e-06 0)
(0.0730331 -4.05706e-06 0)
(0.0730822 -3.94211e-06 0)
(0.0731253 -3.82942e-06 0)
(0.0731717 -3.72103e-06 0)
(0.0732123 -3.61478e-06 0)
(0.0732563 -3.51257e-06 0)
(0.0732944 -3.41238e-06 0)
(0.073336 -3.31598e-06 0)
(0.073372 -3.22151e-06 0)
(0.0734114 -3.13058e-06 0)
(0.0734452 -3.04148e-06 0)
(0.0734825 -2.95572e-06 0)
(0.0735143 -2.87167e-06 0)
(0.0735496 -2.79078e-06 0)
(0.0735795 -2.71149e-06 0)
(0.073613 -2.63518e-06 0)
(0.0736412 -2.56038e-06 0)
(0.0736728 -2.48837e-06 0)
(0.0736994 -2.41782e-06 0)
(0.0737294 -2.34984e-06 0)
(0.0737543 -2.28332e-06 0)
(0.0737827 -2.21913e-06 0)
(0.0738062 -2.15639e-06 0)
(0.0738331 -2.09579e-06 0)
(0.0738552 -2.0366e-06 0)
(0.0738808 -1.9794e-06 0)
(0.0739015 -1.92352e-06 0)
(0.0739257 -1.86957e-06 0)
(0.0739453 -1.81677e-06 0)
(0.0739682 -1.76591e-06 0)
(0.0739866 -1.716e-06 0)
(0.0740083 -1.66809e-06 0)
(0.0740256 -1.62089e-06 0)
(0.0740462 -1.57574e-06 0)
(0.0740624 -1.5311e-06 0)
(0.074082 -1.48854e-06 0)
(0.0740973 -1.44632e-06 0)
(0.0741158 -1.40617e-06 0)
(0.0741302 -1.36626e-06 0)
(0.0741477 -1.32838e-06 0)
(0.0741612 -1.2907e-06 0)
(0.0741779 -1.25495e-06 0)
(0.0741906 -1.21942e-06 0)
(0.0742064 -1.18566e-06 0)
(0.0742183 -1.15217e-06 0)
(0.0742333 -1.12024e-06 0)
(0.0742445 -1.08865e-06 0)
(0.0742588 -1.05839e-06 0)
(0.0742693 -1.02857e-06 0)
(0.0742828 -9.99849e-07 0)
(0.0742927 -9.71677e-07 0)
(0.0743055 -9.44453e-07 0)
(0.0743148 -9.17881e-07 0)
(0.074327 -8.92163e-07 0)
(0.0743357 -8.67169e-07 0)
(0.0743473 -8.42983e-07 0)
(0.0743554 -8.19551e-07 0)
(0.0743664 -7.9687e-07 0)
(0.074374 -7.74932e-07 0)
(0.0743845 -7.53623e-07 0)
(0.0743917 -7.3302e-07 0)
(0.0744017 -7.12846e-07 0)
(0.0744083 -6.93293e-07 0)
(0.0744179 -6.7394e-07 0)
(0.0744241 -6.55097e-07 0)
(0.0744332 -6.36252e-07 0)
(0.074439 -6.17838e-07 0)
(0.0744476 -5.99335e-07 0)
(0.0744531 -5.8131e-07 0)
(0.0744612 -5.63297e-07 0)
(0.0744663 -5.46011e-07 0)
(0.074474 -5.29066e-07 0)
(0.0744786 -5.13248e-07 0)
(0.074486 -4.98326e-07 0)
(0.0744903 -4.84842e-07 0)
(0.0744973 -4.72985e-07 0)
(0.0745014 -4.62413e-07 0)
(0.0745081 -4.54248e-07 0)
(0.074512 -4.46412e-07 0)
(0.0745184 -4.41579e-07 0)
(0.0745223 -4.35427e-07 0)
(0.0745286 -4.32132e-07 0)
(0.0745323 -4.25995e-07 0)
(0.0745385 -4.2114e-07 0)
(0.0745421 -4.13113e-07 0)
(0.0745481 -4.03307e-07 0)
(0.0745516 -3.91403e-07 0)
(0.0745573 -3.74537e-07 0)
(0.0745604 -3.56878e-07 0)
(0.0745657 -3.33045e-07 0)
(0.0745683 -3.08693e-07 0)
(0.0745731 -2.79685e-07 0)
(0.074575 -2.49735e-07 0)
(0.0745791 -2.17865e-07 0)
(0.0745803 -1.85542e-07 0)
(0.0745836 -1.5318e-07 0)
(0.0745841 -1.22255e-07 0)
(0.0745867 -9.23994e-08 0)
(0.0745865 -6.4955e-08 0)
(0.0745884 -4.16041e-08 0)
(0.0745877 -1.74015e-08 0)
(0.0745889 -3.85221e-09 0)
(0.0745879 1.72385e-08 0)
(0.0745886 2.19873e-08 0)
(0.0745875 3.64624e-08 0)
(0.0745879 3.89941e-08 0)
(0.0745866 4.26486e-08 0)
(0.0745869 4.51258e-08 0)
(0.0745856 4.51269e-08 0)
(0.0745859 3.95095e-08 0)
(0.0745846 4.37896e-08 0)
(0.0745849 3.02163e-08 0)
(0.0745838 3.65233e-08 0)
(0.0745842 -3.49635e-09 0)
(0.050022 -0.000293987 0)
(0.0544747 -0.000180065 0)
(0.054089 -0.000125591 0)
(0.0559765 -0.000104313 0)
(0.0562481 -8.38545e-05 0)
(0.057205 -7.56707e-05 0)
(0.0576579 -6.81252e-05 0)
(0.0583102 -6.33718e-05 0)
(0.0587789 -5.92509e-05 0)
(0.0593067 -5.60138e-05 0)
(0.0597503 -5.32097e-05 0)
(0.0602128 -5.08342e-05 0)
(0.0606254 -4.87188e-05 0)
(0.0610457 -4.68746e-05 0)
(0.0614297 -4.51788e-05 0)
(0.0618185 -4.36747e-05 0)
(0.0621773 -4.2252e-05 0)
(0.0625403 -4.09714e-05 0)
(0.0628769 -3.97326e-05 0)
(0.0632176 -3.86025e-05 0)
(0.0635343 -3.7491e-05 0)
(0.0638549 -3.64653e-05 0)
(0.0641532 -3.54451e-05 0)
(0.0644554 -3.4495e-05 0)
(0.0647368 -3.35432e-05 0)
(0.0650218 -3.26509e-05 0)
(0.0652873 -3.17538e-05 0)
(0.0655561 -3.09086e-05 0)
(0.0658066 -3.00578e-05 0)
(0.0660603 -2.92532e-05 0)
(0.0662965 -2.84439e-05 0)
(0.0665358 -2.76762e-05 0)
(0.0667586 -2.69055e-05 0)
(0.0669844 -2.61726e-05 0)
(0.0671944 -2.54387e-05 0)
(0.0674073 -2.47393e-05 0)
(0.0676053 -2.40411e-05 0)
(0.0678061 -2.33744e-05 0)
(0.0679926 -2.27106e-05 0)
(0.068182 -2.20762e-05 0)
(0.0683576 -2.14458e-05 0)
(0.0685362 -2.08429e-05 0)
(0.0687016 -2.02448e-05 0)
(0.06887 -1.96729e-05 0)
(0.0690258 -1.91059e-05 0)
(0.0691846 -1.85641e-05 0)
(0.0693313 -1.80271e-05 0)
(0.069481 -1.75144e-05 0)
(0.0696191 -1.70064e-05 0)
(0.0697602 -1.65217e-05 0)
(0.0698904 -1.60414e-05 0)
(0.0700234 -1.55835e-05 0)
(0.0701459 -1.51298e-05 0)
(0.0702714 -1.46975e-05 0)
(0.0703868 -1.42692e-05 0)
(0.0705051 -1.38612e-05 0)
(0.0706137 -1.34571e-05 0)
(0.0707253 -1.30722e-05 0)
(0.0708276 -1.26912e-05 0)
(0.0709329 -1.23281e-05 0)
(0.0710293 -1.19689e-05 0)
(0.0711286 -1.16266e-05 0)
(0.0712193 -1.1288e-05 0)
(0.071313 -1.09653e-05 0)
(0.0713985 -1.06463e-05 0)
(0.071487 -1.03421e-05 0)
(0.0715674 -1.00415e-05 0)
(0.0716509 -9.75476e-06 0)
(0.0717267 -9.47155e-06 0)
(0.0718056 -9.20132e-06 0)
(0.0718769 -8.93453e-06 0)
(0.0719514 -8.67981e-06 0)
(0.0720186 -8.42852e-06 0)
(0.0720889 -8.18839e-06 0)
(0.0721522 -7.95172e-06 0)
(0.0722187 -7.72532e-06 0)
(0.0722783 -7.50241e-06 0)
(0.0723411 -7.28895e-06 0)
(0.0723972 -7.079e-06 0)
(0.0724566 -6.87771e-06 0)
(0.0725094 -6.67995e-06 0)
(0.0725655 -6.49014e-06 0)
(0.0726153 -6.30383e-06 0)
(0.0726683 -6.12485e-06 0)
(0.0727152 -5.9493e-06 0)
(0.0727653 -5.78053e-06 0)
(0.0728095 -5.61507e-06 0)
(0.0728569 -5.45594e-06 0)
(0.0728984 -5.29998e-06 0)
(0.0729433 -5.14993e-06 0)
(0.0729824 -5.00288e-06 0)
(0.0730249 -4.86139e-06 0)
(0.0730617 -4.72274e-06 0)
(0.0731019 -4.5893e-06 0)
(0.0731366 -4.45856e-06 0)
(0.0731746 -4.3327e-06 0)
(0.0732072 -4.2094e-06 0)
(0.0732433 -4.09069e-06 0)
(0.0732739 -3.97439e-06 0)
(0.0733081 -3.86241e-06 0)
(0.0733369 -3.75271e-06 0)
(0.0733693 -3.64706e-06 0)
(0.0733964 -3.54358e-06 0)
(0.073427 -3.44389e-06 0)
(0.0734526 -3.34629e-06 0)
(0.0734816 -3.25218e-06 0)
(0.0735056 -3.16014e-06 0)
(0.0735331 -3.07128e-06 0)
(0.0735557 -2.98449e-06 0)
(0.0735818 -2.90059e-06 0)
(0.0736031 -2.81871e-06 0)
(0.0736277 -2.73952e-06 0)
(0.0736477 -2.66221e-06 0)
(0.0736711 -2.58751e-06 0)
(0.07369 -2.51448e-06 0)
(0.0737121 -2.44406e-06 0)
(0.0737298 -2.37502e-06 0)
(0.0737508 -2.30867e-06 0)
(0.0737675 -2.2434e-06 0)
(0.0737874 -2.18088e-06 0)
(0.0738031 -2.11914e-06 0)
(0.073822 -2.0602e-06 0)
(0.0738367 -2.00181e-06 0)
(0.0738546 -1.94621e-06 0)
(0.0738685 -1.89102e-06 0)
(0.0738854 -1.83855e-06 0)
(0.0738985 -1.78644e-06 0)
(0.0739146 -1.73692e-06 0)
(0.0739268 -1.68778e-06 0)
(0.0739421 -1.64102e-06 0)
(0.0739536 -1.59471e-06 0)
(0.0739681 -1.55048e-06 0)
(0.0739789 -1.50681e-06 0)
(0.0739927 -1.46489e-06 0)
(0.0740028 -1.42365e-06 0)
(0.0740159 -1.38388e-06 0)
(0.0740254 -1.34493e-06 0)
(0.0740378 -1.30722e-06 0)
(0.0740467 -1.27047e-06 0)
(0.0740585 -1.23484e-06 0)
(0.0740669 -1.20027e-06 0)
(0.0740781 -1.16675e-06 0)
(0.0740859 -1.13434e-06 0)
(0.0740966 -1.10291e-06 0)
(0.0741039 -1.07257e-06 0)
(0.0741141 -1.04303e-06 0)
(0.0741209 -1.01455e-06 0)
(0.0741306 -9.86605e-07 0)
(0.074137 -9.59599e-07 0)
(0.0741462 -9.32806e-07 0)
(0.0741523 -9.06805e-07 0)
(0.074161 -8.80731e-07 0)
(0.0741667 -8.55335e-07 0)
(0.074175 -8.29734e-07 0)
(0.0741802 -8.04865e-07 0)
(0.0741881 -7.79911e-07 0)
(0.074193 -7.56022e-07 0)
(0.0742004 -7.32484e-07 0)
(0.0742049 -7.1055e-07 0)
(0.074212 -6.89737e-07 0)
(0.0742162 -6.70947e-07 0)
(0.0742229 -6.54315e-07 0)
(0.0742269 -6.395e-07 0)
(0.0742333 -6.27968e-07 0)
(0.0742371 -6.16958e-07 0)
(0.0742433 -6.101e-07 0)
(0.074247 -6.0155e-07 0)
(0.0742531 -5.9695e-07 0)
(0.0742567 -5.88647e-07 0)
(0.0742626 -5.82073e-07 0)
(0.0742661 -5.71404e-07 0)
(0.0742719 -5.58197e-07 0)
(0.0742752 -5.42332e-07 0)
(0.0742808 -5.19558e-07 0)
(0.0742838 -4.95773e-07 0)
(0.074289 -4.63448e-07 0)
(0.0742915 -4.30344e-07 0)
(0.0742961 -3.90762e-07 0)
(0.0742981 -3.49792e-07 0)
(0.0743021 -3.05999e-07 0)
(0.0743033 -2.61553e-07 0)
(0.0743066 -2.16791e-07 0)
(0.0743072 -1.74014e-07 0)
(0.0743097 -1.32506e-07 0)
(0.0743096 -9.42436e-08 0)
(0.0743114 -6.16225e-08 0)
(0.0743108 -2.76347e-08 0)
(0.0743121 -8.44707e-09 0)
(0.0743112 2.11508e-08 0)
(0.0743119 2.84759e-08 0)
(0.0743108 4.85288e-08 0)
(0.0743112 5.30053e-08 0)
(0.07431 5.80248e-08 0)
(0.0743103 6.20421e-08 0)
(0.074309 6.21169e-08 0)
(0.0743093 5.51592e-08 0)
(0.0743081 5.98908e-08 0)
(0.0743084 4.39025e-08 0)
(0.0743072 4.74125e-08 0)
(0.0743078 -1.21217e-08 0)
(0.0500218 -0.000379296 0)
(0.0544854 -0.000230052 0)
(0.0540988 -0.000162447 0)
(0.0559853 -0.000133546 0)
(0.0562572 -0.000108127 0)
(0.0572136 -9.71242e-05 0)
(0.057667 -8.76879e-05 0)
(0.0583191 -8.14321e-05 0)
(0.0587883 -7.6215e-05 0)
(0.0593159 -7.20075e-05 0)
(0.0597599 -6.84266e-05 0)
(0.0602221 -6.53539e-05 0)
(0.0606349 -6.26373e-05 0)
(0.0610547 -6.02522e-05 0)
(0.0614384 -5.80643e-05 0)
(0.0618262 -5.61146e-05 0)
(0.0621842 -5.42715e-05 0)
(0.0625455 -5.26064e-05 0)
(0.0628805 -5.09961e-05 0)
(0.0632188 -4.95227e-05 0)
(0.063533 -4.80746e-05 0)
(0.0638504 -4.67353e-05 0)
(0.0641455 -4.54048e-05 0)
(0.0644437 -4.41639e-05 0)
(0.0647211 -4.29231e-05 0)
(0.0650015 -4.17586e-05 0)
(0.0652623 -4.05904e-05 0)
(0.065526 -3.94891e-05 0)
(0.0657713 -3.83832e-05 0)
(0.0660193 -3.73371e-05 0)
(0.0662499 -3.62873e-05 0)
(0.0664833 -3.52915e-05 0)
(0.0667001 -3.42941e-05 0)
(0.0669197 -3.33457e-05 0)
(0.0671236 -3.23981e-05 0)
(0.0673302 -3.14952e-05 0)
(0.0675219 -3.05955e-05 0)
(0.0677163 -2.97368e-05 0)
(0.0678965 -2.88832e-05 0)
(0.0680795 -2.80676e-05 0)
(0.0682489 -2.72584e-05 0)
(0.0684211 -2.64849e-05 0)
(0.0685805 -2.57185e-05 0)
(0.0687426 -2.49859e-05 0)
(0.0688924 -2.42604e-05 0)
(0.069045 -2.35674e-05 0)
(0.0691859 -2.28813e-05 0)
(0.0693297 -2.22264e-05 0)
(0.0694622 -2.1578e-05 0)
(0.0695976 -2.09596e-05 0)
(0.0697223 -2.03473e-05 0)
(0.0698498 -1.97637e-05 0)
(0.0699671 -1.91859e-05 0)
(0.0700873 -1.86353e-05 0)
(0.0701976 -1.80903e-05 0)
(0.0703109 -1.7571e-05 0)
(0.0704147 -1.70573e-05 0)
(0.0705215 -1.65677e-05 0)
(0.0706192 -1.60835e-05 0)
(0.0707199 -1.56221e-05 0)
(0.0708119 -1.51659e-05 0)
(0.0709068 -1.4731e-05 0)
(0.0709934 -1.43013e-05 0)
(0.0710829 -1.38915e-05 0)
(0.0711644 -1.34867e-05 0)
(0.0712489 -1.31006e-05 0)
(0.0713256 -1.27193e-05 0)
(0.0714054 -1.23556e-05 0)
(0.0714776 -1.19964e-05 0)
(0.0715529 -1.16537e-05 0)
(0.0716209 -1.13155e-05 0)
(0.071692 -1.09925e-05 0)
(0.071756 -1.0674e-05 0)
(0.0718231 -1.03696e-05 0)
(0.0718834 -1.00697e-05 0)
(0.0719468 -9.78272e-06 0)
(0.0720036 -9.50029e-06 0)
(0.0720635 -9.22978e-06 0)
(0.072117 -8.96381e-06 0)
(0.0721736 -8.70878e-06 0)
(0.0722239 -8.45828e-06 0)
(0.0722774 -8.21783e-06 0)
(0.0723248 -7.98186e-06 0)
(0.0723754 -7.75514e-06 0)
(0.07242 -7.53282e-06 0)
(0.0724679 -7.31906e-06 0)
(0.0725099 -7.10953e-06 0)
(0.0725551 -6.908e-06 0)
(0.0725947 -6.7105e-06 0)
(0.0726375 -6.52048e-06 0)
(0.0726747 -6.3343e-06 0)
(0.0727152 -6.15511e-06 0)
(0.0727502 -5.97957e-06 0)
(0.0727886 -5.8106e-06 0)
(0.0728216 -5.64507e-06 0)
(0.0728579 -5.4857e-06 0)
(0.0728889 -5.3296e-06 0)
(0.0729233 -5.17929e-06 0)
(0.0729525 -5.03205e-06 0)
(0.072985 -4.89027e-06 0)
(0.0730125 -4.75138e-06 0)
(0.0730434 -4.61762e-06 0)
(0.0730692 -4.48662e-06 0)
(0.0730984 -4.36039e-06 0)
(0.0731227 -4.23684e-06 0)
(0.0731504 -4.11768e-06 0)
(0.0731733 -4.00117e-06 0)
(0.0731995 -3.88866e-06 0)
(0.073221 -3.77878e-06 0)
(0.0732459 -3.67256e-06 0)
(0.0732661 -3.5689e-06 0)
(0.0732897 -3.46864e-06 0)
(0.0733087 -3.37077e-06 0)
(0.073331 -3.27619e-06 0)
(0.0733489 -3.18374e-06 0)
(0.0733701 -3.09458e-06 0)
(0.0733869 -3.00719e-06 0)
(0.073407 -2.92317e-06 0)
(0.0734228 -2.84054e-06 0)
(0.0734418 -2.76138e-06 0)
(0.0734567 -2.68323e-06 0)
(0.0734748 -2.60859e-06 0)
(0.0734888 -2.53468e-06 0)
(0.0735059 -2.46427e-06 0)
(0.073519 -2.39442e-06 0)
(0.0735353 -2.32797e-06 0)
(0.0735476 -2.26202e-06 0)
(0.073563 -2.19929e-06 0)
(0.0735746 -2.1371e-06 0)
(0.0735892 -2.07787e-06 0)
(0.0736002 -2.01926e-06 0)
(0.073614 -1.96324e-06 0)
(0.0736243 -1.90797e-06 0)
(0.0736374 -1.85488e-06 0)
(0.0736471 -1.8027e-06 0)
(0.0736596 -1.75233e-06 0)
(0.0736686 -1.70303e-06 0)
(0.0736805 -1.65527e-06 0)
(0.0736889 -1.60876e-06 0)
(0.0737002 -1.56362e-06 0)
(0.0737082 -1.51986e-06 0)
(0.0737189 -1.4774e-06 0)
(0.0737263 -1.43636e-06 0)
(0.0737365 -1.39653e-06 0)
(0.0737435 -1.35811e-06 0)
(0.0737532 -1.3207e-06 0)
(0.0737597 -1.28465e-06 0)
(0.0737689 -1.24926e-06 0)
(0.0737751 -1.2151e-06 0)
(0.0737838 -1.18119e-06 0)
(0.0737896 -1.14832e-06 0)
(0.0737979 -1.11535e-06 0)
(0.0738033 -1.08326e-06 0)
(0.0738112 -1.05088e-06 0)
(0.0738162 -1.01945e-06 0)
(0.0738237 -9.8786e-07 0)
(0.0738284 -9.57621e-07 0)
(0.0738355 -9.27763e-07 0)
(0.0738398 -8.99918e-07 0)
(0.0738466 -8.73425e-07 0)
(0.0738506 -8.4947e-07 0)
(0.073857 -8.282e-07 0)
(0.0738607 -8.09216e-07 0)
(0.0738669 -7.94381e-07 0)
(0.0738704 -7.80241e-07 0)
(0.0738764 -7.71373e-07 0)
(0.0738799 -7.60493e-07 0)
(0.0738856 -7.54613e-07 0)
(0.0738891 -7.44296e-07 0)
(0.0738947 -7.36117e-07 0)
(0.0738981 -7.23075e-07 0)
(0.0739036 -7.06752e-07 0)
(0.0739067 -6.87316e-07 0)
(0.073912 -6.59123e-07 0)
(0.0739149 -6.29716e-07 0)
(0.0739199 -5.89545e-07 0)
(0.0739223 -5.48294e-07 0)
(0.0739268 -4.9884e-07 0)
(0.0739287 -4.47507e-07 0)
(0.0739325 -3.9246e-07 0)
(0.0739338 -3.36511e-07 0)
(0.0739369 -2.79929e-07 0)
(0.0739375 -2.25788e-07 0)
(0.07394 -1.73086e-07 0)
(0.07394 -1.24321e-07 0)
(0.0739418 -8.27138e-08 0)
(0.0739413 -3.91483e-08 0)
(0.0739425 -1.43406e-08 0)
(0.0739417 2.35319e-08 0)
(0.0739424 3.37266e-08 0)
(0.0739414 5.90863e-08 0)
(0.0739418 6.58908e-08 0)
(0.0739406 7.22004e-08 0)
(0.073941 7.80145e-08 0)
(0.0739397 7.80968e-08 0)
(0.0739401 7.03612e-08 0)
(0.0739388 7.50198e-08 0)
(0.0739392 5.74148e-08 0)
(0.073938 5.83104e-08 0)
(0.0739386 -2.14711e-08 0)
(0.0500216 -0.000464798 0)
(0.054499 -0.000280208 0)
(0.0541112 -0.00019927 0)
(0.0559964 -0.000162777 0)
(0.0562688 -0.000132392 0)
(0.0572246 -0.000118581 0)
(0.0576785 -0.000107253 0)
(0.0583303 -9.94979e-05 0)
(0.0588 -9.31844e-05 0)
(0.0593274 -8.80059e-05 0)
(0.0597719 -8.36461e-05 0)
(0.0602338 -7.98719e-05 0)
(0.0606466 -7.65481e-05 0)
(0.0610656 -7.36136e-05 0)
(0.0614488 -7.09239e-05 0)
(0.0618351 -6.85164e-05 0)
(0.0621916 -6.62401e-05 0)
(0.0625506 -6.41759e-05 0)
(0.0628832 -6.21795e-05 0)
(0.063218 -6.03474e-05 0)
(0.0635288 -5.85479e-05 0)
(0.0638418 -5.68798e-05 0)
(0.0641325 -5.52251e-05 0)
(0.0644254 -5.36795e-05 0)
(0.0646974 -5.21372e-05 0)
(0.0649717 -5.06887e-05 0)
(0.0652264 -4.9239e-05 0)
(0.0654833 -4.78719e-05 0)
(0.0657218 -4.65027e-05 0)
(0.0659626 -4.52075e-05 0)
(0.066186 -4.39112e-05 0)
(0.0664117 -4.26819e-05 0)
(0.066621 -4.14536e-05 0)
(0.0668326 -4.02863e-05 0)
(0.0670288 -3.91226e-05 0)
(0.0672274 -3.80144e-05 0)
(0.0674113 -3.69123e-05 0)
(0.0675976 -3.58612e-05 0)
(0.06777 -3.48182e-05 0)
(0.0679449 -3.38223e-05 0)
(0.0681067 -3.28358e-05 0)
(0.068271 -3.18934e-05 0)
(0.0684227 -3.09609e-05 0)
(0.0685771 -3.00701e-05 0)
(0.0687195 -2.91892e-05 0)
(0.0688646 -2.8348e-05 0)
(0.0689982 -2.75162e-05 0)
(0.0691347 -2.67226e-05 0)
(0.0692602 -2.59376e-05 0)
(0.0693886 -2.51893e-05 0)
(0.0695065 -2.4449e-05 0)
(0.0696273 -2.37436e-05 0)
(0.0697381 -2.30458e-05 0)
(0.0698518 -2.2381e-05 0)
(0.069956 -2.17235e-05 0)
(0.070063 -2.10972e-05 0)
(0.070161 -2.04779e-05 0)
(0.0702618 -1.98879e-05 0)
(0.0703539 -1.93048e-05 0)
(0.0704489 -1.8749e-05 0)
(0.0705355 -1.81999e-05 0)
(0.0706251 -1.76766e-05 0)
(0.0707066 -1.71596e-05 0)
(0.070791 -1.66667e-05 0)
(0.0708677 -1.618e-05 0)
(0.0709473 -1.57158e-05 0)
(0.0710195 -1.52575e-05 0)
(0.0710946 -1.48204e-05 0)
(0.0711625 -1.4389e-05 0)
(0.0712334 -1.39772e-05 0)
(0.0712973 -1.35711e-05 0)
(0.0713643 -1.31832e-05 0)
(0.0714244 -1.28008e-05 0)
(0.0714876 -1.24353e-05 0)
(0.0715442 -1.20753e-05 0)
(0.071604 -1.17309e-05 0)
(0.0716572 -1.1392e-05 0)
(0.0717137 -1.10674e-05 0)
(0.0717638 -1.07483e-05 0)
(0.0718171 -1.04422e-05 0)
(0.0718643 -1.01417e-05 0)
(0.0719148 -9.85327e-06 0)
(0.0719592 -9.57024e-06 0)
(0.0720068 -9.29829e-06 0)
(0.0720487 -9.03164e-06 0)
(0.0720937 -8.77527e-06 0)
(0.0721331 -8.524e-06 0)
(0.0721758 -8.28231e-06 0)