/*--------------------------------*- C++ -*----------------------------------*\
| =========                 |                                                 |
| \\      /  F ield         | OpenFOAM: The Open Source CFD Toolbox           |
|  \\    /   O peration     | Version:  2412                                  |
|   \\  /    A nd           | Website:  www.openfoam.com                      |
|    \\/     M anipulation  |                                                 |
\*---------------------------------------------------------------------------*/
FoamFile
{
    version     2.0;
    format      ascii;
    arch        "LSB;label=32;scalar=64";
    class       volScalarField;
    location    "500";
    object      p;
}
// * * * * * * * * * * * * * * * * * * * * * * * * * * * * * * * * * * * * * //

dimensions      [0 2 -2 0 0 0 0];

internalField   nonuniform List<scalar> 
8000
(
0.00307855
0.00284392
0.00286571
0.00276174
0.00274652
0.00269292
0.00266664
0.00262969
0.00260191
0.00257167
0.00254493
0.0025181
0.00249286
0.00246816
0.00244432
0.00242115
0.00239853
0.00237656
0.00235497
0.00233399
0.00231328
0.00229313
0.00227318
0.00225374
0.00223445
0.00221564
0.00219694
0.00217868
0.0021605
0.00214273
0.00212502
0.00210769
0.0020904
0.00207347
0.00205657
0.00204
0.00202345
0.00200721
0.00199098
0.00197504
0.00195912
0.00194345
0.00192781
0.00191239
0.00189701
0.00188183
0.0018667
0.00185172
0.00183682
0.00182205
0.00180736
0.00179278
0.00177829
0.00176388
0.00174959
0.00173534
0.00172122
0.00170713
0.00169317
0.00167922
0.00166543
0.00165162
0.00163797
0.00162429
0.00161078
0.00159722
0.00158383
0.00157039
0.00155713
0.0015438
0.00153065
0.00151743
0.00150439
0.00149127
0.00147833
0.0014653
0.00145245
0.00143952
0.00142676
0.00141392
0.00140124
0.00138848
0.00137588
0.0013632
0.00135067
0.00133806
0.00132561
0.00131307
0.00130068
0.00128822
0.00127589
0.0012635
0.00125122
0.00123889
0.00122667
0.0012144
0.00120222
0.00119001
0.00117787
0.00116571
0.00115361
0.00114149
0.00112942
0.00111735
0.00110532
0.00109329
0.00108132
0.00106934
0.00105743
0.00104552
0.00103367
0.00102184
0.00101007
0.000998311
0.000986622
0.000974942
0.000963327
0.000951715
0.000940161
0.000928603
0.000917093
0.000905572
0.00089409
0.000882589
0.000871119
0.000859624
0.000848154
0.000836656
0.000825179
0.000813673
0.000802185
0.000790668
0.000779169
0.000767642
0.000756131
0.000744596
0.000733077
0.000721536
0.00071001
0.000698465
0.000686934
0.000675386
0.000663852
0.000652303
0.000640766
0.000629217
0.000617679
0.000606129
0.00059459
0.00058304
0.000571501
0.000559951
0.000548411
0.000536861
0.000525322
0.000513772
0.000502232
0.000490682
0.000479143
0.000467593
0.000456053
0.000444503
0.000432964
0.000421413
0.000409874
0.000398324
0.000386784
0.000375234
0.000363694
0.000352145
0.000340605
0.000329055
0.000317515
0.000305965
0.000294425
0.000282876
0.000271336
0.000259785
0.000248247
0.000236695
0.000225158
0.000213605
0.000202069
0.000190515
0.000178979
0.000167425
0.00015589
0.000144335
0.000132801
0.000121246
0.000109711
9.81563e-05
8.66209e-05
7.50673e-05
6.35304e-05
5.19787e-05
4.04379e-05
2.88892e-05
1.73168e-05
5.77812e-06
0.00307864
0.0028439
0.00286567
0.00276174
0.0027465
0.00269292
0.00266663
0.00262969
0.00260191
0.00257167
0.00254493
0.0025181
0.00249286
0.00246815
0.00244432
0.00242115
0.00239853
0.00237656
0.00235497
0.00233399
0.00231328
0.00229312
0.00227318
0.00225374
0.00223445
0.00221564
0.00219694
0.00217868
0.0021605
0.00214273
0.00212502
0.00210769
0.0020904
0.00207347
0.00205657
0.00204
0.00202345
0.00200721
0.00199098
0.00197504
0.00195912
0.00194345
0.00192781
0.00191239
0.00189701
0.00188183
0.0018667
0.00185172
0.00183682
0.00182205
0.00180736
0.00179278
0.00177829
0.00176388
0.00174959
0.00173534
0.00172122
0.00170713
0.00169317
0.00167922
0.00166543
0.00165162
0.00163797
0.00162429
0.00161078
0.00159722
0.00158383
0.00157039
0.00155713
0.0015438
0.00153065
0.00151743
0.00150439
0.00149127
0.00147833
0.0014653
0.00145245
0.00143952
0.00142676
0.00141392
0.00140124
0.00138848
0.00137588
0.0013632
0.00135067
0.00133806
0.00132561
0.00131307
0.00130068
0.00128822
0.00127589
0.0012635
0.00125122
0.00123889
0.00122667
0.0012144
0.00120222
0.00119001
0.00117787
0.00116571
0.00115361
0.00114149
0.00112942
0.00111735
0.00110532
0.00109329
0.00108132
0.00106934
0.00105743
0.00104552
0.00103367
0.00102184
0.00101007
0.000998311
0.000986622
0.000974942
0.000963327
0.000951715
0.000940161
0.000928603
0.000917093
0.000905572
0.00089409
0.000882589
0.000871119
0.000859624
0.000848154
0.000836656
0.000825179
0.000813673
0.000802185
0.000790668
0.000779169
0.000767642
0.000756131
0.000744596
0.000733077
0.000721536
0.00071001
0.000698465
0.000686934
0.000675386
0.000663852
0.000652303
0.000640766
0.000629217
0.000617679
0.000606129
0.00059459
0.00058304
0.000571501
0.000559951
0.000548411
0.000536861
0.000525322
0.000513772
0.000502232
0.000490682
0.000479143
0.000467593
0.000456053
0.000444503
0.000432964
0.000421413
0.000409874
0.000398324
0.000386784
0.000375234
0.000363694
0.000352145
0.000340605
0.000329055
0.000317515
0.000305965
0.000294425
0.000282876
0.000271336
0.000259785
0.000248247
0.000236695
0.000225158
0.000213605
0.000202069
0.000190515
0.000178979
0.000167425
0.00015589
0.000144335
0.000132801
0.000121246
0.000109711
9.81563e-05
8.66209e-05
7.50673e-05
6.35304e-05
5.19787e-05
4.04379e-05
2.88892e-05
1.73167e-05
5.778e-06
0.00307885
0.00284381
0.00286563
0.00276172
0.00274649
0.00269291
0.00266663
0.00262968
0.00260191
0.00257166
0.00254493
0.00251809
0.00249286
0.00246815
0.00244432
0.00242115
0.00239853
0.00237656
0.00235497
0.00233398
0.00231328
0.00229312
0.00227317
0.00225374
0.00223445
0.00221564
0.00219694
0.00217868
0.0021605
0.00214273
0.00212502
0.00210769
0.0020904
0.00207347
0.00205657
0.00204
0.00202345
0.0020072
0.00199098
0.00197504
0.00195912
0.00194345
0.00192781
0.00191239
0.00189701
0.00188183
0.0018667
0.00185172
0.00183682
0.00182205
0.00180736
0.00179278
0.00177829
0.00176388
0.00174959
0.00173534
0.00172122
0.00170713
0.00169317
0.00167922
0.00166543
0.00165162
0.00163797
0.00162429
0.00161078
0.00159722
0.00158383
0.00157039
0.00155713
0.0015438
0.00153065
0.00151743
0.00150439
0.00149127
0.00147833
0.0014653
0.00145245
0.00143952
0.00142676
0.00141392
0.00140124
0.00138848
0.00137588
0.0013632
0.00135067
0.00133806
0.00132561
0.00131307
0.00130068
0.00128822
0.00127589
0.0012635
0.00125122
0.00123889
0.00122667
0.0012144
0.00120222
0.00119001
0.00117787
0.00116571
0.00115361
0.00114149
0.00112942
0.00111735
0.00110532
0.00109329
0.00108132
0.00106934
0.00105743
0.00104552
0.00103367
0.00102184
0.00101007
0.000998311
0.000986622
0.000974942
0.000963326
0.000951715
0.000940161
0.000928603
0.000917093
0.000905572
0.00089409
0.000882589
0.000871119
0.000859624
0.000848154
0.000836656
0.000825179
0.000813673
0.000802185
0.000790668
0.000779169
0.000767642
0.000756131
0.000744596
0.000733077
0.000721536
0.00071001
0.000698465
0.000686934
0.000675386
0.000663852
0.000652303
0.000640766
0.000629217
0.000617679
0.000606129
0.00059459
0.00058304
0.000571501
0.000559951
0.000548411
0.000536861
0.000525322
0.000513772
0.000502232
0.000490682
0.000479143
0.000467593
0.000456053
0.000444503
0.000432964
0.000421413
0.000409874
0.000398324
0.000386784
0.000375234
0.000363694
0.000352145
0.000340605
0.000329055
0.000317515
0.000305965
0.000294425
0.000282876
0.000271336
0.000259785
0.000248247
0.000236695
0.000225158
0.000213605
0.000202069
0.000190515
0.000178979
0.000167425
0.00015589
0.000144335
0.000132801
0.000121246
0.000109711
9.81563e-05
8.66209e-05
7.50673e-05
6.35304e-05
5.19787e-05
4.0438e-05
2.88892e-05
1.73169e-05
5.77819e-06
0.00307917
0.00284368
0.00286556
0.00276168
0.00274646
0.0026929
0.00266661
0.00262967
0.0026019
0.00257166
0.00254492
0.00251809
0.00249285
0.00246815
0.00244432
0.00242115
0.00239853
0.00237656
0.00235497
0.00233398
0.00231328
0.00229312
0.00227317
0.00225374
0.00223445
0.00221564
0.00219694
0.00217868
0.0021605
0.00214273
0.00212502
0.00210769
0.0020904
0.00207347
0.00205657
0.00204
0.00202345
0.0020072
0.00199098
0.00197504
0.00195912
0.00194345
0.00192781
0.00191239
0.00189701
0.00188183
0.0018667
0.00185172
0.00183682
0.00182205
0.00180736
0.00179278
0.00177829
0.00176388
0.00174959
0.00173534
0.00172122
0.00170713
0.00169317
0.00167922
0.00166543
0.00165162
0.00163797
0.00162429
0.00161077
0.00159722
0.00158383
0.00157039
0.00155713
0.0015438
0.00153065
0.00151743
0.00150439
0.00149127
0.00147833
0.0014653
0.00145245
0.00143952
0.00142676
0.00141392
0.00140124
0.00138848
0.00137588
0.0013632
0.00135067
0.00133806
0.00132561
0.00131307
0.00130068
0.00128822
0.00127589
0.0012635
0.00125122
0.00123889
0.00122667
0.0012144
0.00120222
0.00119001
0.00117787
0.00116571
0.00115361
0.00114149
0.00112942
0.00111735
0.00110532
0.00109329
0.00108132
0.00106934
0.00105743
0.00104552
0.00103367
0.00102184
0.00101007
0.00099831
0.000986622
0.000974942
0.000963326
0.000951715
0.00094016
0.000928603
0.000917093
0.000905572
0.00089409
0.000882589
0.000871119
0.000859624
0.000848154
0.000836656
0.000825179
0.000813673
0.000802185
0.000790668
0.000779169
0.000767642
0.000756131
0.000744596
0.000733077
0.000721536
0.00071001
0.000698465
0.000686934
0.000675386
0.000663852
0.000652303
0.000640766
0.000629217
0.000617679
0.000606129
0.00059459
0.00058304
0.000571501
0.000559951
0.000548411
0.000536861
0.000525322
0.000513772
0.000502232
0.000490682
0.000479143
0.000467593
0.000456053
0.000444503
0.000432964
0.000421413
0.000409874
0.000398324
0.000386784
0.000375234
0.000363694
0.000352145
0.000340605
0.000329055
0.000317515
0.000305965
0.000294425
0.000282876
0.000271336
0.000259785
0.000248247
0.000236695
0.000225158
0.000213605
0.000202069
0.000190515
0.000178979
0.000167425
0.00015589
0.000144335
0.000132801
0.000121246
0.000109711
9.81563e-05
8.66209e-05
7.50673e-05
6.35304e-05
5.19787e-05
4.0438e-05
2.88893e-05
1.73174e-05
5.77868e-06
0.00307959
0.0028435
0.00286548
0.00276164
0.00274643
0.00269288
0.0026666
0.00262966
0.00260189
0.00257165
0.00254492
0.00251808
0.00249285
0.00246814
0.00244431
0.00242114
0.00239852
0.00237655
0.00235497
0.00233398
0.00231327
0.00229312
0.00227317
0.00225373
0.00223445
0.00221564
0.00219694
0.00217868
0.0021605
0.00214273
0.00212502
0.00210769
0.0020904
0.00207347
0.00205657
0.00204
0.00202345
0.0020072
0.00199098
0.00197504
0.00195912
0.00194345
0.00192781
0.00191239
0.00189701
0.00188183
0.00186669
0.00185172
0.00183682
0.00182205
0.00180736
0.00179278
0.00177829
0.00176388
0.00174959
0.00173534
0.00172122
0.00170712
0.00169317
0.00167922
0.00166543
0.00165162
0.00163797
0.00162429
0.00161077
0.00159722
0.00158383
0.00157039
0.00155713
0.0015438
0.00153065
0.00151743
0.00150439
0.00149127
0.00147833
0.0014653
0.00145245
0.00143952
0.00142676
0.00141392
0.00140124
0.00138848
0.00137588
0.0013632
0.00135067
0.00133806
0.00132561
0.00131307
0.00130068
0.00128822
0.00127589
0.00126349
0.00125122
0.00123889
0.00122667
0.0012144
0.00120222
0.00119001
0.00117787
0.00116571
0.00115361
0.00114149
0.00112942
0.00111735
0.00110532
0.00109329
0.00108132
0.00106934
0.00105743
0.00104552
0.00103367
0.00102184
0.00101007
0.00099831
0.000986621
0.000974941
0.000963326
0.000951715
0.00094016
0.000928602
0.000917093
0.000905572
0.00089409
0.000882589
0.000871119
0.000859624
0.000848154
0.000836656
0.000825179
0.000813673
0.000802185
0.000790668
0.000779169
0.000767642
0.000756131
0.000744596
0.000733077
0.000721536
0.00071001
0.000698465
0.000686934
0.000675386
0.000663852
0.000652303
0.000640766
0.000629217
0.000617679
0.000606129
0.00059459
0.00058304
0.000571501
0.000559951
0.000548411
0.000536861
0.000525322
0.000513772
0.000502232
0.000490682
0.000479143
0.000467593
0.000456053
0.000444503
0.000432964
0.000421413
0.000409874
0.000398324
0.000386784
0.000375234
0.000363694
0.000352145
0.000340605
0.000329055
0.000317515
0.000305965
0.000294425
0.000282876
0.000271336
0.000259785
0.000248247
0.000236695
0.000225158
0.000213605
0.000202069
0.000190515
0.000178979
0.000167425
0.00015589
0.000144335
0.000132801
0.000121246
0.000109711
9.81563e-05
8.66209e-05
7.50673e-05
6.35305e-05
5.19787e-05
4.0438e-05
2.88893e-05
1.73181e-05
5.77942e-06
0.00308011
0.00284327
0.00286538
0.00276158
0.00274639
0.00269286
0.00266658
0.00262965
0.00260188
0.00257164
0.00254491
0.00251808
0.00249284
0.00246814
0.00244431
0.00242114
0.00239852
0.00237655
0.00235496
0.00233398
0.00231327
0.00229312
0.00227317
0.00225373
0.00223445
0.00221563
0.00219693
0.00217868
0.00216049
0.00214273
0.00212501
0.00210769
0.0020904
0.00207347
0.00205656
0.00203999
0.00202345
0.0020072
0.00199098
0.00197503
0.00195912
0.00194344
0.00192781
0.00191239
0.00189701
0.00188182
0.00186669
0.00185172
0.00183682
0.00182205
0.00180736
0.00179278
0.00177829
0.00176388
0.00174958
0.00173534
0.00172122
0.00170712
0.00169317
0.00167922
0.00166543
0.00165162
0.00163797
0.00162429
0.00161077
0.00159722
0.00158383
0.00157039
0.00155713
0.0015438
0.00153065
0.00151743
0.00150439
0.00149127
0.00147833
0.0014653
0.00145245
0.00143952
0.00142676
0.00141392
0.00140124
0.00138848
0.00137588
0.0013632
0.00135067
0.00133806
0.00132561
0.00131307
0.00130068
0.00128822
0.00127589
0.00126349
0.00125122
0.00123889
0.00122667
0.0012144
0.00120222
0.00119001
0.00117787
0.00116571
0.00115361
0.00114149
0.00112942
0.00111735
0.00110532
0.00109329
0.00108132
0.00106934
0.00105743
0.00104552
0.00103367
0.00102183
0.00101007
0.00099831
0.000986621
0.000974941
0.000963326
0.000951714
0.00094016
0.000928602
0.000917093
0.000905572
0.00089409
0.000882588
0.000871119
0.000859624
0.000848154
0.000836656
0.000825179
0.000813673
0.000802185
0.000790668
0.000779169
0.000767642
0.000756132
0.000744596
0.000733077
0.000721536
0.00071001
0.000698465
0.000686934
0.000675386
0.000663852
0.000652303
0.000640766
0.000629217
0.000617679
0.000606129
0.00059459
0.00058304
0.000571501
0.000559951
0.000548411
0.000536861
0.000525322
0.000513772
0.000502232
0.000490682
0.000479143
0.000467593
0.000456053
0.000444503
0.000432964
0.000421413
0.000409874
0.000398324
0.000386784
0.000375234
0.000363694
0.000352145
0.000340604
0.000329055
0.000317515
0.000305965
0.000294425
0.000282876
0.000271336
0.000259785
0.000248247
0.000236695
0.000225158
0.000213605
0.000202069
0.000190515
0.000178979
0.000167425
0.00015589
0.000144335
0.000132801
0.000121246
0.000109711
9.81563e-05
8.66209e-05
7.50673e-05
6.35305e-05
5.19787e-05
4.04381e-05
2.88894e-05
1.73191e-05
5.7804e-06
0.00308074
0.002843
0.00286525
0.0027615
0.00274634
0.00269283
0.00266656
0.00262963
0.00260186
0.00257163
0.0025449
0.00251807
0.00249283
0.00246813
0.0024443
0.00242113
0.00239851
0.00237654
0.00235496
0.00233397
0.00231327
0.00229311
0.00227316
0.00225373
0.00223444
0.00221563
0.00219693
0.00217867
0.00216049
0.00214272
0.00212501
0.00210769
0.0020904
0.00207347
0.00205656
0.00203999
0.00202344
0.0020072
0.00199098
0.00197503
0.00195911
0.00194344
0.00192781
0.00191239
0.00189701
0.00188182
0.00186669
0.00185172
0.00183682
0.00182205
0.00180736
0.00179278
0.00177829
0.00176388
0.00174958
0.00173534
0.00172122
0.00170712
0.00169317
0.00167922
0.00166543
0.00165162
0.00163797
0.00162429
0.00161077
0.00159722
0.00158383
0.00157039
0.00155713
0.0015438
0.00153065
0.00151743
0.00150439
0.00149127
0.00147833
0.0014653
0.00145245
0.00143952
0.00142676
0.00141392
0.00140124
0.00138848
0.00137588
0.0013632
0.00135067
0.00133806
0.00132561
0.00131307
0.00130068
0.00128822
0.00127589
0.00126349
0.00125122
0.00123889
0.00122667
0.0012144
0.00120222
0.00119001
0.00117787
0.00116571
0.00115361
0.00114149
0.00112942
0.00111735
0.00110532
0.00109329
0.00108132
0.00106934
0.00105743
0.00104552
0.00103367
0.00102183
0.00101007
0.000998309
0.000986621
0.000974941
0.000963326
0.000951714
0.00094016
0.000928602
0.000917093
0.000905572
0.00089409
0.000882588
0.000871119
0.000859624
0.000848154
0.000836656
0.00082518
0.000813673
0.000802185
0.000790668
0.000779169
0.000767642
0.000756132
0.000744597
0.000733077
0.000721536
0.00071001
0.000698465
0.000686934
0.000675386
0.000663852
0.000652303
0.000640766
0.000629217
0.000617679
0.000606129
0.00059459
0.00058304
0.000571501
0.000559951
0.000548411
0.000536861
0.000525322
0.000513772
0.000502232
0.000490682
0.000479143
0.000467593
0.000456053
0.000444503
0.000432964
0.000421413
0.000409874
0.000398324
0.000386784
0.000375234
0.000363694
0.000352145
0.000340604
0.000329055
0.000317515
0.000305965
0.000294425
0.000282876
0.000271336
0.000259785
0.000248247
0.000236695
0.000225158
0.000213605
0.000202069
0.000190515
0.000178979
0.000167425
0.00015589
0.000144335
0.000132801
0.000121246
0.000109711
9.81563e-05
8.66209e-05
7.50673e-05
6.35305e-05
5.19786e-05
4.04381e-05
2.88894e-05
1.73203e-05
5.78159e-06
0.00308148
0.00284268
0.00286511
0.00276142
0.00274628
0.00269279
0.00266653
0.00262961
0.00260185
0.00257161
0.00254489
0.00251806
0.00249282
0.00246812
0.00244429
0.00242112
0.00239851
0.00237654
0.00235495
0.00233397
0.00231326
0.00229311
0.00227316
0.00225372
0.00223444
0.00221563
0.00219693
0.00217867
0.00216049
0.00214272
0.00212501
0.00210768
0.00209039
0.00207346
0.00205656
0.00203999
0.00202344
0.0020072
0.00199098
0.00197503
0.00195911
0.00194344
0.0019278
0.00191238
0.00189701
0.00188182
0.00186669
0.00185172
0.00183682
0.00182205
0.00180736
0.00179277
0.00177829
0.00176388
0.00174958
0.00173533
0.00172122
0.00170712
0.00169317
0.00167922
0.00166543
0.00165161
0.00163797
0.00162428
0.00161077
0.00159722
0.00158383
0.00157039
0.00155713
0.0015438
0.00153065
0.00151743
0.00150439
0.00149127
0.00147832
0.0014653
0.00145245
0.00143952
0.00142676
0.00141392
0.00140124
0.00138848
0.00137588
0.0013632
0.00135067
0.00133806
0.00132561
0.00131307
0.00130068
0.00128822
0.00127589
0.00126349
0.00125122
0.00123889
0.00122667
0.0012144
0.00120222
0.00119001
0.00117787
0.00116571
0.00115361
0.00114149
0.00112942
0.00111735
0.00110532
0.00109329
0.00108132
0.00106934
0.00105743
0.00104552
0.00103367
0.00102183
0.00101007
0.000998309
0.00098662
0.000974941
0.000963325
0.000951714
0.00094016
0.000928602
0.000917092
0.000905571
0.000894089
0.000882588
0.000871119
0.000859624
0.000848154
0.000836656
0.00082518
0.000813673
0.000802185
0.000790668
0.000779169
0.000767642
0.000756132
0.000744597
0.000733077
0.000721536
0.00071001
0.000698465
0.000686934
0.000675386
0.000663852
0.000652303
0.000640766
0.000629217
0.000617679
0.000606129
0.00059459
0.00058304
0.000571501
0.000559951
0.000548411
0.000536861
0.000525322
0.000513772
0.000502232
0.000490682
0.000479143
0.000467593
0.000456053
0.000444503
0.000432963
0.000421413
0.000409874
0.000398324
0.000386784
0.000375234
0.000363694
0.000352145
0.000340604
0.000329055
0.000317515
0.000305965
0.000294425
0.000282876
0.000271336
0.000259785
0.000248247
0.000236695
0.000225158
0.000213605
0.000202069
0.000190515
0.000178979
0.000167425
0.00015589
0.000144335
0.000132801
0.000121246
0.000109711
9.81563e-05
8.66209e-05
7.50673e-05
6.35305e-05
5.19786e-05
4.04382e-05
2.88895e-05
1.73216e-05
5.78297e-06
0.00308232
0.00284231
0.00286494
0.00276132
0.00274622
0.00269276
0.0026665
0.00262959
0.00260183
0.0025716
0.00254487
0.00251804
0.00249281
0.00246811
0.00244428
0.00242112
0.0023985
0.00237653
0.00235495
0.00233396
0.00231326
0.0022931
0.00227316
0.00225372
0.00223443
0.00221562
0.00219692
0.00217867
0.00216049
0.00214272
0.00212501
0.00210768
0.00209039
0.00207346
0.00205656
0.00203999
0.00202344
0.0020072
0.00199097
0.00197503
0.00195911
0.00194344
0.0019278
0.00191238
0.00189701
0.00188182
0.00186669
0.00185172
0.00183682
0.00182205
0.00180736
0.00179277
0.00177829
0.00176388
0.00174958
0.00173533
0.00172122
0.00170712
0.00169317
0.00167922
0.00166543
0.00165161
0.00163797
0.00162428
0.00161077
0.00159721
0.00158383
0.00157039
0.00155713
0.0015438
0.00153065
0.00151743
0.00150439
0.00149127
0.00147832
0.0014653
0.00145245
0.00143952
0.00142676
0.00141392
0.00140124
0.00138848
0.00137588
0.0013632
0.00135067
0.00133806
0.00132561
0.00131307
0.00130068
0.00128822
0.00127589
0.00126349
0.00125122
0.00123889
0.00122667
0.0012144
0.00120222
0.00119001
0.00117787
0.00116571
0.00115361
0.00114149
0.00112942
0.00111735
0.00110532
0.00109329
0.00108132
0.00106934
0.00105743
0.00104552
0.00103367
0.00102183
0.00101007
0.000998309
0.00098662
0.00097494
0.000963325
0.000951714
0.000940159
0.000928602
0.000917092
0.000905571
0.000894089
0.000882588
0.000871119
0.000859624
0.000848154
0.000836656
0.00082518
0.000813673
0.000802185
0.000790668
0.000779169
0.000767642
0.000756132
0.000744597
0.000733077
0.000721536
0.00071001
0.000698465
0.000686934
0.000675386
0.000663852
0.000652303
0.000640766
0.000629217
0.000617679
0.000606129
0.00059459
0.00058304
0.000571501
0.000559951
0.000548411
0.000536861
0.000525322
0.000513772
0.000502232
0.000490682
0.000479143
0.000467593
0.000456053
0.000444503
0.000432963
0.000421413
0.000409874
0.000398324
0.000386784
0.000375234
0.000363694
0.000352145
0.000340604
0.000329055
0.000317515
0.000305965
0.000294425
0.000282876
0.000271336
0.000259785
0.000248247
0.000236695
0.000225158
0.000213605
0.000202069
0.000190515
0.000178979
0.000167425
0.00015589
0.000144335
0.000132801
0.000121246
0.000109711
9.81563e-05
8.66209e-05
7.50673e-05
6.35305e-05
5.19786e-05
4.04383e-05
2.88896e-05
1.73232e-05
5.78452e-06
0.00308326
0.0028419
0.00286475
0.00276121
0.00274615
0.00269271
0.00266647
0.00262956
0.00260181
0.00257158
0.00254486
0.00251803
0.0024928
0.0024681
0.00244427
0.00242111
0.00239849
0.00237652
0.00235494
0.00233395
0.00231325
0.0022931
0.00227315
0.00225372
0.00223443
0.00221562
0.00219692
0.00217866
0.00216048
0.00214272
0.002125
0.00210768
0.00209039
0.00207346
0.00205656
0.00203999
0.00202344
0.00200719
0.00199097
0.00197503
0.00195911
0.00194344
0.0019278
0.00191238
0.00189701
0.00188182
0.00186669
0.00185172
0.00183682
0.00182204
0.00180736
0.00179277
0.00177829
0.00176388
0.00174958
0.00173533
0.00172122
0.00170712
0.00169317
0.00167922
0.00166543
0.00165161
0.00163796
0.00162428
0.00161077
0.00159721
0.00158383
0.00157039
0.00155713
0.0015438
0.00153065
0.00151743
0.00150439
0.00149127
0.00147832
0.0014653
0.00145245
0.00143952
0.00142676
0.00141392
0.00140124
0.00138848
0.00137588
0.00136319
0.00135067
0.00133806
0.00132561
0.00131307
0.00130068
0.00128822
0.00127589
0.00126349
0.00125122
0.00123889
0.00122667
0.0012144
0.00120222
0.00119001
0.00117787
0.00116571
0.00115361
0.00114149
0.00112942
0.00111735
0.00110532
0.00109329
0.00108132
0.00106934
0.00105743
0.00104552
0.00103367
0.00102183
0.00101007
0.000998308
0.00098662
0.00097494
0.000963325
0.000951713
0.000940159
0.000928602
0.000917092
0.000905571
0.000894089
0.000882588
0.000871119
0.000859624
0.000848154
0.000836656
0.00082518
0.000813673
0.000802185
0.000790668
0.000779169
0.000767642
0.000756132
0.000744597
0.000733077
0.000721536
0.00071001
0.000698465
0.000686934
0.000675386
0.000663852
0.000652303
0.000640766
0.000629217
0.000617679
0.000606129
0.00059459
0.00058304
0.000571501
0.000559951
0.000548411
0.000536861
0.000525322
0.000513772
0.000502232
0.000490682
0.000479143
0.000467593
0.000456053
0.000444503
0.000432963
0.000421413
0.000409874
0.000398324
0.000386784
0.000375234
0.000363694
0.000352145
0.000340604
0.000329055
0.000317515
0.000305965
0.000294425
0.000282876
0.000271336
0.000259785
0.000248247
0.000236695
0.000225158
0.000213605
0.000202069
0.000190515
0.000178979
0.000167425
0.00015589
0.000144335
0.000132801
0.000121246
0.000109711
9.81563e-05
8.66209e-05
7.50672e-05
6.35305e-05
5.19786e-05
4.04383e-05
2.88896e-05
1.73248e-05
5.7862e-06
0.00308431
0.00284144
0.00286455
0.00276109
0.00274607
0.00269266
0.00266643
0.00262954
0.00260179
0.00257156
0.00254484
0.00251802
0.00249279
0.00246809
0.00244426
0.0024211
0.00239848
0.00237652
0.00235493
0.00233395
0.00231324
0.00229309
0.00227314
0.00225371
0.00223443
0.00221562
0.00219692
0.00217866
0.00216048
0.00214271
0.002125
0.00210767
0.00209038
0.00207346
0.00205655
0.00203998
0.00202343
0.00200719
0.00199097
0.00197503
0.00195911
0.00194344
0.0019278
0.00191238
0.001897
0.00188182
0.00186669
0.00185172
0.00183681
0.00182204
0.00180736
0.00179277
0.00177829
0.00176388
0.00174958
0.00173533
0.00172121
0.00170712
0.00169317
0.00167922
0.00166542
0.00165161
0.00163796
0.00162428
0.00161077
0.00159721
0.00158383
0.00157039
0.00155713
0.0015438
0.00153065
0.00151743
0.00150439
0.00149127
0.00147832
0.0014653
0.00145245
0.00143952
0.00142676
0.00141392
0.00140124
0.00138848
0.00137588
0.00136319
0.00135067
0.00133806
0.00132561
0.00131307
0.00130068
0.00128822
0.00127589
0.00126349
0.00125122
0.00123889
0.00122667
0.0012144
0.00120222
0.00119001
0.00117787
0.00116571
0.00115361
0.00114149
0.00112942
0.00111735
0.00110532
0.00109329
0.00108132
0.00106934
0.00105743
0.00104552
0.00103367
0.00102183
0.00101007
0.000998308
0.000986619
0.000974939
0.000963324
0.000951713
0.000940159
0.000928601
0.000917092
0.000905571
0.000894089
0.000882588
0.000871119
0.000859624
0.000848154
0.000836656
0.00082518
0.000813673
0.000802185
0.000790669
0.000779169
0.000767642
0.000756132
0.000744597
0.000733077
0.000721536
0.00071001
0.000698465
0.000686934
0.000675386
0.000663852
0.000652303
0.000640766
0.000629217
0.000617679
0.000606129
0.00059459
0.00058304
0.000571501
0.000559951
0.000548411
0.000536861
0.000525322
0.000513772
0.000502232
0.000490682
0.000479143
0.000467593
0.000456053
0.000444503
0.000432963
0.000421413
0.000409874
0.000398324
0.000386784
0.000375234
0.000363694
0.000352145
0.000340604
0.000329055
0.000317515
0.000305965
0.000294425
0.000282876
0.000271336
0.000259785
0.000248247
0.000236695
0.000225158
0.000213605
0.000202069
0.000190515
0.000178979
0.000167425
0.00015589
0.000144335
0.000132801
0.000121246
0.000109711
9.81563e-05
8.66209e-05
7.50672e-05
6.35305e-05
5.19786e-05
4.04384e-05
2.88897e-05
1.73266e-05
5.78799e-06
0.00308547
0.00284093
0.00286432
0.00276095
0.00274598
0.00269261
0.00266639
0.00262951
0.00260176
0.00257154
0.00254482
0.002518
0.00249277
0.00246808
0.00244425
0.00242109
0.00239847
0.00237651
0.00235492
0.00233394
0.00231324
0.00229308
0.00227314
0.0022537
0.00223442
0.00221561
0.00219691
0.00217865
0.00216047
0.00214271
0.002125
0.00210767
0.00209038
0.00207345
0.00205655
0.00203998
0.00202343
0.00200719
0.00199097
0.00197502
0.00195911
0.00194343
0.0019278
0.00191238
0.001897
0.00188182
0.00186669
0.00185171
0.00183681
0.00182204
0.00180736
0.00179277
0.00177829
0.00176387
0.00174958
0.00173533
0.00172121
0.00170712
0.00169317
0.00167922
0.00166542
0.00165161
0.00163796
0.00162428
0.00161077
0.00159721
0.00158383
0.00157039
0.00155713
0.0015438
0.00153065
0.00151743
0.00150439
0.00149127
0.00147832
0.0014653
0.00145245
0.00143952
0.00142676
0.00141391
0.00140124
0.00138848
0.00137588
0.00136319
0.00135067
0.00133806
0.00132561
0.00131307
0.00130068
0.00128822
0.00127589
0.00126349
0.00125122
0.00123889
0.00122667
0.0012144
0.00120222
0.00119001
0.00117787
0.00116571
0.00115361
0.00114149
0.00112942
0.00111734
0.00110532
0.00109329
0.00108132
0.00106934
0.00105743
0.00104551
0.00103367
0.00102183
0.00101006
0.000998307
0.000986619
0.000974939
0.000963324
0.000951713
0.000940158
0.000928601
0.000917092
0.000905571
0.000894089
0.000882588
0.000871119
0.000859624
0.000848154
0.000836656
0.00082518
0.000813673
0.000802186
0.000790669
0.000779169
0.000767642
0.000756132
0.000744597
0.000733077
0.000721536
0.00071001
0.000698465
0.000686934
0.000675387
0.000663852
0.000652303
0.000640766
0.000629217
0.000617679
0.000606129
0.00059459
0.00058304
0.000571501
0.000559951
0.000548411
0.000536861
0.000525322
0.000513772
0.000502232
0.000490682
0.000479143
0.000467593
0.000456053
0.000444503
0.000432963
0.000421413
0.000409874
0.000398324
0.000386784
0.000375234
0.000363694
0.000352145
0.000340604
0.000329055
0.000317515
0.000305965
0.000294425
0.000282876
0.000271336
0.000259785
0.000248247
0.000236695
0.000225158
0.000213605
0.000202069
0.000190515
0.000178979
0.000167425
0.00015589
0.000144335
0.000132801
0.000121246
0.000109711
9.81563e-05
8.66209e-05
7.50672e-05
6.35305e-05
5.19786e-05
4.04385e-05
2.88898e-05
1.73284e-05
5.78986e-06
0.00308674
0.00284037
0.00286406
0.0027608
0.00274588
0.00269255
0.00266635
0.00262947
0.00260173
0.00257151
0.0025448
0.00251798
0.00249276
0.00246806
0.00244424
0.00242108
0.00239846
0.0023765
0.00235491
0.00233393
0.00231323
0.00229308
0.00227313
0.0022537
0.00223441
0.00221561
0.00219691
0.00217865
0.00216047
0.0021427
0.00212499
0.00210767
0.00209038
0.00207345
0.00205655
0.00203998
0.00202343
0.00200719
0.00199097
0.00197502
0.0019591
0.00194343
0.0019278
0.00191238
0.001897
0.00188181
0.00186668
0.00185171
0.00183681
0.00182204
0.00180735
0.00179277
0.00177828
0.00176387
0.00174958
0.00173533
0.00172121
0.00170712
0.00169317
0.00167922
0.00166542
0.00165161
0.00163796
0.00162428
0.00161077
0.00159721
0.00158383
0.00157039
0.00155713
0.0015438
0.00153065
0.00151743
0.00150439
0.00149127
0.00147832
0.0014653
0.00145245
0.00143952
0.00142676
0.00141391
0.00140124
0.00138848
0.00137588
0.00136319
0.00135067
0.00133806
0.00132561
0.00131307
0.00130068
0.00128822
0.00127589
0.00126349
0.00125122
0.00123889
0.00122667
0.0012144
0.00120222
0.00119001
0.00117787
0.00116571
0.00115361
0.00114148
0.00112942
0.00111734
0.00110532
0.00109329
0.00108132
0.00106934
0.00105743
0.00104551
0.00103367
0.00102183
0.00101006
0.000998307
0.000986618
0.000974939
0.000963323
0.000951712
0.000940158
0.000928601
0.000917092
0.000905571
0.000894089
0.000882588
0.000871119
0.000859624
0.000848154
0.000836656
0.00082518
0.000813673
0.000802186
0.000790669
0.000779169
0.000767642
0.000756132
0.000744597
0.000733077
0.000721536
0.00071001
0.000698465
0.000686934
0.000675387
0.000663852
0.000652303
0.000640766
0.000629217
0.000617679
0.000606129
0.00059459
0.00058304
0.000571501
0.000559951
0.000548411
0.000536862
0.000525322
0.000513772
0.000502232
0.000490682
0.000479143
0.000467593
0.000456053
0.000444503
0.000432963
0.000421413
0.000409874
0.000398324