/*--------------------------------*- C++ -*----------------------------------*\
| =========                 |                                                 |
| \\      /  F ield         | OpenFOAM: The Open Source CFD Toolbox           |
|  \\    /   O peration     | Version:  2412                                  |
|   \\  /    A nd           | Website:  www.openfoam.com                      |
|    \\/     M anipulation  |                                                 |
\*---------------------------------------------------------------------------*/
FoamFile
{
    version     2.0;
    format      ascii;
    arch        "LSB;label=32;scalar=64";
    class       surfaceScalarField;
    location    "500";
    object      phi;
}
// * * * * * * * * * * * * * * * * * * * * * * * * * * * * * * * * * * * * * //

dimensions      [0 3 -1 0 0 0 0];

oriented        oriented;

internalField   nonuniform List<scalar> 
15760
(
1.31109e-08
-6.10948e-10
1.3527e-08
-4.16009e-10
1.37776e-08
-2.50663e-10
1.40115e-08
-2.3387e-10
1.41854e-08
-1.73868e-10
1.43506e-08
-1.65198e-10
1.44948e-08
-1.44288e-10
1.46315e-08
-1.36667e-10
1.4758e-08
-1.26477e-10
1.48782e-08
-1.20247e-10
1.49921e-08
-1.139e-10
1.51011e-08
-1.08953e-10
1.52055e-08
-1.04409e-10
1.53059e-08
-1.00429e-10
1.54028e-08
-9.69008e-11
1.54964e-08
-9.35964e-11
1.55871e-08
-9.07041e-11
1.5675e-08
-8.78607e-11
1.57604e-08
-8.53895e-11
1.58432e-08
-8.28586e-11
1.59239e-08
-8.06768e-11
1.60023e-08
-7.83593e-11
1.60787e-08
-7.63841e-11
1.61529e-08
-7.4216e-11
1.62253e-08
-7.23953e-11
1.62956e-08
-7.03368e-11
1.63642e-08
-6.86379e-11
1.64309e-08
-6.66656e-11
1.6496e-08
-6.50685e-11
1.65591e-08
-6.31695e-11
1.66208e-08
-6.16617e-11
1.66806e-08
-5.98299e-11
1.6739e-08
-5.84036e-11
1.67957e-08
-5.66367e-11
1.6851e-08
-5.52864e-11
1.69045e-08
-5.35847e-11
1.69569e-08
-5.23059e-11
1.70075e-08
-5.06707e-11
1.7057e-08
-4.94594e-11
1.71049e-08
-4.78927e-11
1.71516e-08
-4.67446e-11
1.71969e-08
-4.52485e-11
1.7241e-08
-4.41594e-11
1.72838e-08
-4.27356e-11
1.73255e-08
-4.17011e-11
1.73658e-08
-4.03511e-11
1.74052e-08
-3.93664e-11
1.74433e-08
-3.80914e-11
1.74804e-08
-3.71519e-11
1.75164e-08
-3.59524e-11
1.75514e-08
-3.50537e-11
1.75854e-08
-3.39297e-11
1.76184e-08
-3.30674e-11
1.76504e-08
-3.20185e-11
1.76816e-08
-3.11888e-11
1.77119e-08
-3.02138e-11
1.77413e-08
-2.94131e-11
1.77698e-08
-2.85106e-11
1.77975e-08
-2.77358e-11
1.78244e-08
-2.69039e-11
1.78506e-08
-2.61524e-11
1.7876e-08
-2.53886e-11
1.79006e-08
-2.46582e-11
1.79246e-08
-2.39597e-11
1.79478e-08
-2.32484e-11
1.79704e-08
-2.26121e-11
1.79924e-08
-2.19191e-11
1.80137e-08
-2.13418e-11
1.80344e-08
-2.06667e-11
1.80545e-08
-2.01443e-11
1.8074e-08
-1.94873e-11
1.8093e-08
-1.90144e-11
1.81114e-08
-1.83759e-11
1.81293e-08
-1.79464e-11
1.81467e-08
-1.73287e-11
1.81636e-08
-1.69368e-11
1.81799e-08
-1.6344e-11
1.81959e-08
-1.59846e-11
1.82113e-08
-1.54211e-11
1.82264e-08
-1.50892e-11
1.8241e-08
-1.45564e-11
1.82552e-08
-1.42461e-11
1.8269e-08
-1.37409e-11
1.82824e-08
-1.34473e-11
1.82954e-08
-1.29635e-11
1.83081e-08
-1.26858e-11
1.83203e-08
-1.22177e-11
1.83323e-08
-1.19604e-11
1.83438e-08
-1.15058e-11
1.8355e-08
-1.12778e-11
1.83659e-08
-1.08397e-11
1.83765e-08
-1.06502e-11
1.83868e-08
-1.02355e-11
1.83969e-08
-1.00895e-11
1.84066e-08
-9.70637e-12
1.84162e-08
-9.60084e-12
1.84254e-08
-9.25356e-12
1.84346e-08
-9.17398e-12
1.84434e-08
-8.85655e-12
1.84522e-08
-8.77537e-12
1.84607e-08
-8.46678e-12
1.8469e-08
-8.34503e-12
1.8477e-08
-8.01024e-12
1.84848e-08
-7.80477e-12
1.84922e-08
-7.40378e-12
1.84993e-08
-7.07993e-12
1.85059e-08
-6.5828e-12
1.8512e-08
-6.12861e-12
1.85176e-08
-5.53025e-12
1.85225e-08
-4.96552e-12
1.85268e-08
-4.29271e-12
1.85305e-08
-3.66761e-12
1.85335e-08
-2.97415e-12
1.85358e-08
-2.35671e-12
1.85375e-08
-1.70837e-12
1.85387e-08
-1.16566e-12
1.85393e-08
-6.21359e-13
1.85395e-08
-2.02288e-13
1.85393e-08
2.01099e-13
1.85388e-08
4.75236e-13
1.85381e-08
7.2924e-13
1.85373e-08
8.64462e-13
1.85363e-08
9.86034e-13
1.85353e-08
1.00809e-12
1.85342e-08
1.0302e-12
1.85333e-08
9.74206e-13
1.85323e-08
9.3453e-13
1.85315e-08
8.35605e-13
1.85307e-08
7.67575e-13
1.85301e-08
6.54445e-13
1.85295e-08
5.82476e-13
1.8529e-08
4.74464e-13
1.85286e-08
4.13318e-13
1.85283e-08
3.20333e-13
1.8528e-08
2.76709e-13
1.85278e-08
2.01464e-13
1.85276e-08
1.76225e-13
1.85275e-08
1.17421e-13
1.85274e-08
1.07635e-13
1.85273e-08
6.26484e-14
1.85273e-08
6.35424e-14
1.85272e-08
2.98512e-14
1.85272e-08
3.64771e-14
1.85272e-08
1.20419e-14
1.85272e-08
2.03583e-14
1.85272e-08
3.54997e-15
1.85272e-08
1.09512e-14
1.85272e-08
1.84583e-16
1.85271e-08
5.64595e-15
1.85272e-08
-8.28137e-16
1.85271e-08
2.86888e-15
1.85271e-08
-9.4964e-16
1.85271e-08
1.39544e-15
1.85271e-08
-5.37918e-16
1.85271e-08
2.34171e-16
1.85271e-08
4.30047e-16
1.85271e-08
-1.10703e-15
1.85271e-08
1.79579e-15
1.85271e-08
-2.52673e-15
1.85271e-08
3.05119e-15
1.85271e-08
-3.47119e-15
1.85271e-08
3.62302e-15
1.85271e-08
-3.61402e-15
1.85271e-08
3.45944e-15
1.85271e-08
-3.29655e-15
1.85271e-08
3.20412e-15
1.85271e-08
-3.28902e-15
1.85271e-08
3.56904e-15
1.85271e-08
-4.05108e-15
1.85271e-08
4.72192e-15
1.85272e-08
-5.50721e-15
1.85271e-08
6.40935e-15
1.85272e-08
-7.40545e-15
1.85271e-08
8.56305e-15
1.85272e-08
-9.89875e-15
1.85271e-08
1.14355e-14
1.85272e-08
-1.30669e-14
1.85271e-08
1.46168e-14
1.85272e-08
-1.578e-14
1.85271e-08
1.63155e-14
1.85272e-08
-1.61217e-14
1.85271e-08
1.53765e-14
1.85272e-08
-1.44124e-14
1.85271e-08
1.36464e-14
1.85272e-08
-1.31846e-14
1.85271e-08
1.28975e-14
1.85272e-08
-1.22887e-14
1.85271e-08
1.09567e-14
1.85272e-08
-8.65241e-15
1.85271e-08
5.52347e-15
1.85271e-08
-1.86962e-15
1.85271e-08
-2.22693e-15
1.85271e-08
7.26192e-15
1.85272e-08
-1.43881e-14
1.85271e-08
2.44994e-14
1.85272e-08
-4.22727e-14
1.85271e-08
6.6021e-14
1.85273e-08
-1.82708e-13
1.8527e-08
2.54093e-13
-7.31527e-13
1.31373e-08
-1.24828e-09
1.35107e-08
-7.89397e-10
1.37873e-08
-5.27228e-10
1.40066e-08
-4.5318e-10
1.41887e-08
-3.55933e-10
1.43495e-08
-3.26051e-10
1.44962e-08
-2.91001e-10
1.46316e-08
-2.72035e-10
1.47588e-08
-2.53692e-10
1.48787e-08
-2.40108e-10
1.49928e-08
-2.28026e-10
1.51016e-08
-2.17798e-10
1.52061e-08
-2.08876e-10
1.53065e-08
-2.00825e-10
1.54034e-08
-1.93786e-10
1.5497e-08
-1.87164e-10
1.55876e-08
-1.81342e-10
1.56754e-08
-1.75665e-10
1.57607e-08
-1.70663e-10
1.58434e-08
-1.65619e-10
1.59239e-08
-1.61186e-10
1.60022e-08
-1.56574e-10
1.60783e-08
-1.5255e-10
1.61523e-08
-1.4824e-10
1.62245e-08
-1.44525e-10
1.62946e-08
-1.40438e-10
1.63629e-08
-1.36967e-10
1.64293e-08
-1.33057e-10
1.6494e-08
-1.29793e-10
1.65569e-08
-1.26033e-10
1.66182e-08
-1.22952e-10
1.66777e-08
-1.19328e-10
1.67357e-08
-1.16415e-10
1.6792e-08
-1.12923e-10
1.68468e-08
-1.10167e-10
1.69001e-08
-1.06806e-10
1.6952e-08
-1.04198e-10
1.70023e-08
-1.0097e-10
1.70513e-08
-9.85034e-11
1.70988e-08
-9.54103e-11
1.71452e-08
-9.30768e-11
1.719e-08
-9.01219e-11
1.72338e-08
-8.7913e-11
1.72761e-08
-8.50992e-11
1.73174e-08
-8.30059e-11
1.73574e-08
-8.03354e-11
1.73964e-08
-7.83487e-11
1.74341e-08
-7.58231e-11
1.74709e-08
-7.39336e-11
1.75065e-08
-7.15536e-11
1.75412e-08
-6.97522e-11
1.75748e-08
-6.75177e-11
1.76075e-08
-6.57956e-11
1.76392e-08
-6.37056e-11
1.76701e-08
-6.20547e-11
1.77e-08
-6.01071e-11
1.77291e-08
-5.85198e-11
1.77573e-08
-5.67119e-11
1.77847e-08
-5.51816e-11
1.78114e-08
-5.35099e-11
1.78372e-08
-5.20307e-11
1.78623e-08
-5.04909e-11
1.78867e-08
-4.90579e-11
1.79104e-08
-4.76447e-11
1.79334e-08
-4.62534e-11
1.79558e-08
-4.49611e-11
1.79775e-08
-4.36091e-11
1.79986e-08
-4.24318e-11
1.8019e-08
-4.11178e-11
1.80389e-08
-4.0048e-11
1.80582e-08
-3.87719e-11
1.8077e-08
-3.77993e-11
1.80952e-08
-3.65616e-11
1.81129e-08
-3.56742e-11
1.813e-08
-3.44789e-11
1.81468e-08
-3.36653e-11
1.81629e-08
-3.25202e-11
1.81787e-08
-3.17706e-11
1.8194e-08
-3.06841e-11
1.82089e-08
-2.99889e-11
1.82233e-08
-2.89637e-11
1.82374e-08
-2.83122e-11
1.8251e-08
-2.73419e-11
1.82642e-08
-2.67252e-11
1.82771e-08
-2.57967e-11
1.82896e-08
-2.52132e-11
1.83017e-08
-2.4314e-11
1.83135e-08
-2.37727e-11
1.83249e-08
-2.28974e-11
1.8336e-08
-2.24156e-11
1.83468e-08
-2.15692e-11
1.83573e-08
-2.1165e-11
1.83674e-08
-2.03613e-11
1.83774e-08
-2.0045e-11
1.8387e-08
-1.93011e-11
1.83964e-08
-1.90674e-11
1.84056e-08
-1.83935e-11
1.84146e-08
-1.82153e-11
1.84234e-08
-1.76016e-11
1.8432e-08
-1.74265e-11
1.84404e-08
-1.68339e-11
1.84486e-08
-1.65863e-11
1.84566e-08
-1.59469e-11
1.84643e-08
-1.55417e-11
1.84717e-08
-1.47759e-11
1.84787e-08
-1.41424e-11
1.84853e-08
-1.3188e-11
1.84915e-08
-1.22983e-11
1.84971e-08
-1.11407e-11
1.85022e-08
-1.00285e-11
1.85066e-08
-8.71576e-12
1.85104e-08
-7.47573e-12
1.85135e-08
-6.11125e-12
1.85161e-08
-4.87567e-12
1.85179e-08
-3.58929e-12
1.85193e-08
-2.4917e-12
1.852e-08
-1.4025e-12
1.85204e-08
-5.43021e-13
1.85203e-08
2.71723e-13
1.85199e-08
8.46355e-13
1.85193e-08
1.36536e-12
1.85185e-08
1.66278e-12
1.85176e-08
1.91609e-12
1.85166e-08
1.98438e-12
1.85156e-08
2.03534e-12
1.85146e-08
1.9429e-12
1.85137e-08
1.86588e-12
1.85129e-08
1.68259e-12
1.85121e-08
1.54467e-12
1.85114e-08
1.32867e-12
1.85108e-08
1.17973e-12
1.85103e-08
9.70773e-13
1.85099e-08
8.41651e-13
1.85095e-08
6.60672e-13
1.85093e-08
5.65947e-13
1.8509e-08
4.19316e-13
1.85088e-08
3.61505e-13
1.85087e-08
2.47299e-13
1.85086e-08
2.20958e-13
1.85085e-08
1.34314e-13
1.85085e-08
1.30049e-13
1.85084e-08
6.60647e-14
1.85084e-08
7.39792e-14
1.85084e-08
2.85695e-14
1.85084e-08
4.05144e-14
1.85083e-08
1.03343e-14
1.85083e-08
2.1015e-14
1.85083e-08
2.79793e-15
1.85083e-08
1.00871e-14
1.85083e-08
2.7513e-16
1.85083e-08
4.39706e-15
1.85083e-08
-2.31338e-16
1.85083e-08
1.3691e-15
1.85083e-08
4.99524e-16
1.85083e-08
-1.01939e-15
1.85083e-08
2.41731e-15
1.85083e-08
-3.74435e-15
1.85083e-08
5.12439e-15
1.85083e-08
-6.55008e-15
1.85083e-08
7.56236e-15
1.85083e-08
-8.34532e-15
1.85083e-08
8.60003e-15
1.85083e-08
-8.54639e-15
1.85083e-08
8.21148e-15
1.85083e-08
-7.88678e-15
1.85083e-08
7.71e-15
1.85083e-08
-7.8964e-15
1.85083e-08
8.47592e-15
1.85083e-08
-9.45201e-15
1.85083e-08
1.08051e-14
1.85083e-08
-1.23879e-14
1.85083e-08
1.4222e-14
1.85083e-08
-1.62681e-14
1.85083e-08
1.86572e-14
1.85083e-08
-2.14259e-14
1.85083e-08
2.4589e-14
1.85083e-08
-2.79168e-14
1.85083e-08
3.10373e-14
1.85083e-08
-3.33435e-14
1.85083e-08
3.43885e-14
1.85083e-08
-3.40147e-14
1.85083e-08
3.26298e-14
1.85083e-08
-3.08992e-14
1.85083e-08
2.96111e-14
1.85083e-08
-2.89082e-14
1.85083e-08
2.84781e-14
1.85083e-08
-2.73326e-14
1.85083e-08
2.47374e-14
1.85083e-08
-2.02871e-14
1.85083e-08
1.43182e-14
1.85083e-08
-7.44031e-15
1.85083e-08
-1.92806e-16
1.85083e-08
9.49009e-15
1.85083e-08
-2.23965e-14
1.85083e-08
4.00204e-14
1.85083e-08
-7.01283e-14
1.85083e-08
1.05077e-13
1.85084e-08
-2.91625e-13
1.85085e-08
1.96603e-13
-1.89458e-12
1.31379e-08
-1.88619e-09
1.35118e-08
-1.16325e-09
1.37883e-08
-8.03797e-10
1.40077e-08
-6.72497e-10
1.41897e-08
-5.38017e-10
1.43506e-08
-4.86916e-10
1.44973e-08
-4.37732e-10
1.46327e-08
-4.07418e-10
1.476e-08
-3.80926e-10
1.48798e-08
-3.59984e-10
1.4994e-08
-3.42168e-10
1.51028e-08
-3.26649e-10
1.52073e-08
-3.13339e-10
1.53077e-08
-3.01196e-10
1.54045e-08
-2.90624e-10
1.5498e-08
-2.80648e-10
1.55885e-08
-2.71864e-10
1.56761e-08
-2.63308e-10
1.57612e-08
-2.55734e-10
1.58437e-08
-2.48126e-10
1.59239e-08
-2.41396e-10
1.60018e-08
-2.34436e-10
1.60776e-08
-2.28318e-10
1.61511e-08
-2.21816e-10
1.62228e-08
-2.16162e-10
1.62923e-08
-2.10004e-10
1.63601e-08
-2.04723e-10
1.64259e-08
-1.98838e-10
1.649e-08
-1.93874e-10
1.65521e-08
-1.88224e-10
1.66127e-08
-1.83542e-10
1.66715e-08
-1.78107e-10
1.67288e-08
-1.73685e-10
1.67843e-08
-1.68456e-10
1.68384e-08
-1.64278e-10
1.68909e-08
-1.59253e-10
1.6942e-08
-1.55304e-10
1.69915e-08
-1.50484e-10
1.70397e-08
-1.46754e-10
1.70865e-08
-1.42142e-10
1.7132e-08
-1.38618e-10
1.71761e-08
-1.34215e-10
1.72191e-08
-1.30884e-10
1.72607e-08
-1.26695e-10
1.73012e-08
-1.23542e-10
1.73405e-08
-1.19569e-10
1.73787e-08
-1.16581e-10
1.74157e-08
-1.12825e-10
1.74517e-08
-1.09987e-10
1.74866e-08
-1.06449e-10
1.75206e-08
-1.03747e-10
1.75535e-08
-1.00425e-10
1.75856e-08
-9.78466e-11
1.76166e-08
-9.47387e-11
1.76468e-08
-9.22706e-11
1.76761e-08
-8.93736e-11
1.77046e-08
-8.70043e-11
1.77322e-08
-8.43139e-11
1.7759e-08
-8.20332e-11
1.77851e-08
-7.95438e-11
1.78104e-08
-7.73428e-11
1.78349e-08
-7.5048e-11
1.78588e-08
-7.29188e-11
1.7882e-08
-7.08108e-11
1.79045e-08
-6.87467e-11
1.79263e-08
-6.68169e-11
1.79475e-08
-6.48136e-11
1.79681e-08
-6.30532e-11
1.79881e-08
-6.11088e-11
1.80076e-08
-5.95069e-11
1.80264e-08
-5.76208e-11
1.80448e-08
-5.61622e-11
1.80626e-08
-5.43353e-11
1.80799e-08
-5.30022e-11
1.80967e-08
-5.12399e-11
1.8113e-08
-5.00151e-11
1.81288e-08
-4.83285e-11
1.81443e-08
-4.71977e-11
1.81592e-08
-4.5599e-11
1.81737e-08
-4.45486e-11
1.81878e-08
-4.30415e-11
1.82016e-08
-4.20566e-11
1.82148e-08
-4.06316e-11
1.82278e-08
-3.96997e-11
1.82404e-08
-3.83368e-11
1.82526e-08
-3.74555e-11
1.82644e-08
-3.61351e-11
1.8276e-08
-3.53171e-11
1.82871e-08
-3.40302e-11
1.8298e-08
-3.33001e-11
1.83085e-08
-3.20536e-11
1.83187e-08
-3.14376e-11
1.83286e-08
-3.02525e-11
1.83384e-08
-2.97658e-11
1.83477e-08
-2.86684e-11
1.8357e-08
-2.83043e-11
1.83659e-08
-2.73116e-11
1.83747e-08
-2.70323e-11
1.83832e-08
-2.61326e-11
1.83917e-08
-2.58636e-11
1.83998e-08
-2.50014e-11
1.84079e-08
-2.4634e-11
1.84156e-08
-2.37105e-11
1.84232e-08
-2.31198e-11
1.84305e-08
-2.20161e-11
1.84374e-08
-2.10957e-11
1.84439e-08
-1.97161e-11
1.84501e-08
-1.84193e-11
1.84557e-08
-1.67359e-11
1.84607e-08
-1.51058e-11
1.84652e-08
-1.31834e-11
1.84691e-08
-1.13534e-11
1.84723e-08
-9.34038e-12
1.84749e-08
-7.50284e-12
1.84769e-08
-5.59043e-12
1.84784e-08
-3.94336e-12
1.84793e-08
-2.31066e-12
1.84798e-08
-1.00631e-12
1.84798e-08
2.26907e-13
1.84795e-08
1.11341e-12
1.8479e-08
1.90964e-12
1.84783e-08
2.38375e-12
1.84774e-08
2.78256e-12
1.84765e-08
2.91133e-12
1.84755e-08
3.00364e-12
1.84746e-08
2.88652e-12
1.84736e-08
2.78165e-12
1.84728e-08
2.5224e-12
1.8472e-08
2.3206e-12
1.84714e-08
2.00683e-12
1.84707e-08
1.78385e-12
1.84702e-08
1.47638e-12
1.84698e-08
1.27995e-12
1.84695e-08
1.01166e-12
1.84692e-08
8.65096e-13
1.84689e-08
6.46861e-13
1.84687e-08
5.54993e-13
1.84686e-08
3.84951e-13
1.84685e-08
3.40259e-13
1.84684e-08
2.11704e-13
1.84683e-08
2.00461e-13
1.84683e-08
1.06231e-13
1.84683e-08
1.13782e-13
1.84682e-08
4.76838e-14
1.84682e-08
6.18935e-14
1.84682e-08
1.87165e-14
1.84682e-08
3.16761e-14
1.84682e-08
6.3246e-15
1.84682e-08
1.48144e-14
1.84682e-08
1.85267e-15
1.84682e-08
6.05586e-15
1.84682e-08
7.2797e-16
1.84682e-08
1.37375e-15
1.84682e-08
1.68443e-15
1.84682e-08
-2.30281e-15
1.84682e-08
4.50226e-15
1.84682e-08
-6.41434e-15
1.84682e-08
8.4772e-15
1.84682e-08
-1.05329e-14
1.84682e-08
1.19922e-14
1.84682e-08
-1.30843e-14
1.84682e-08
1.34143e-14
1.84682e-08
-1.33108e-14
1.84682e-08
1.28141e-14
1.84682e-08
-1.23704e-14
1.84682e-08
1.21612e-14
1.84682e-08
-1.25011e-14
1.84682e-08
1.34249e-14
1.84682e-08
-1.49245e-14
1.84682e-08
1.69746e-14
1.84682e-08
-1.93605e-14
1.84682e-08
2.21308e-14
1.84682e-08
-2.52335e-14
1.84682e-08
2.88563e-14
1.84682e-08
-3.30502e-14
1.84682e-08
3.78008e-14
1.84682e-08
-4.27451e-14
1.84682e-08
4.73158e-14
1.84682e-08
-5.0629e-14
1.84682e-08
5.20772e-14
1.84682e-08
-5.14937e-14
1.84682e-08
4.95422e-14
1.84682e-08
-4.72038e-14
1.84682e-08
4.55805e-14
1.84682e-08
-4.47981e-14
1.84682e-08
4.43401e-14
1.84682e-08
-4.27666e-14
1.84682e-08
3.90948e-14
1.84682e-08
-3.28495e-14
1.84682e-08
2.45949e-14
1.84682e-08
-1.52624e-14
1.84682e-08
5.12729e-15
1.84682e-08
6.93978e-15
1.84682e-08
-2.32082e-14
1.84682e-08
4.41725e-14
1.84682e-08
-7.90574e-14
1.84682e-08
1.10564e-13
1.84682e-08
-3.35359e-13
1.84684e-08
3.51032e-14
-3.27897e-12
1.3139e-08
-2.52518e-09
1.35135e-08
-1.53778e-09
1.379e-08
-1.0803e-09
1.40093e-08
-8.91773e-10
1.41914e-08
-7.20104e-10
1.43523e-08
-6.47787e-10
1.4499e-08
-5.84485e-10
1.46344e-08
-5.42821e-10
1.47617e-08
-5.08187e-10
1.48816e-08
-4.79883e-10
1.49957e-08
-4.56331e-10
1.51046e-08
-4.35503e-10
1.5209e-08
-4.17788e-10
1.53094e-08
-4.01515e-10
1.54061e-08
-3.87373e-10
1.54994e-08
-3.73989e-10
1.55898e-08
-3.62186e-10
1.56771e-08
-3.50684e-10
1.57619e-08
-3.40469e-10
1.5844e-08
-3.30222e-10
1.59237e-08
-3.21122e-10
1.6001e-08
-3.11739e-10
1.60761e-08
-3.03454e-10
1.6149e-08
-2.9469e-10
1.62199e-08
-2.87032e-10
1.62886e-08
-2.78739e-10
1.63555e-08
-2.7159e-10
1.64203e-08
-2.63679e-10
1.64834e-08
-2.56966e-10
1.65446e-08
-2.49387e-10
1.66041e-08
-2.43066e-10
1.66618e-08
-2.35792e-10
1.67179e-08
-2.29832e-10
1.67723e-08
-2.22848e-10
1.68253e-08
-2.17227e-10
1.68766e-08
-2.1053e-10
1.69265e-08
-2.05228e-10
1.69748e-08
-1.98817e-10
1.70219e-08
-1.93816e-10
1.70674e-08
-1.87692e-10
1.71118e-08
-1.82974e-10
1.71547e-08
-1.7714e-10
1.71965e-08
-1.72686e-10
1.7237e-08
-1.67142e-10
1.72763e-08
-1.62933e-10
1.73145e-08
-1.57682e-10
1.73516e-08
-1.53698e-10
1.73875e-08
-1.48738e-10
1.74225e-08
-1.4496e-10
1.74563e-08
-1.40291e-10
1.74893e-08
-1.36698e-10
1.75211e-08
-1.32318e-10
1.75522e-08
-1.28893e-10
1.75823e-08
-1.24797e-10
1.76115e-08
-1.21523e-10
1.76398e-08
-1.17707e-10
1.76674e-08
-1.14567e-10
1.76941e-08
-1.11024e-10
1.77201e-08
-1.08005e-10
1.77453e-08
-1.04727e-10
1.77697e-08
-1.01817e-10
1.77935e-08
-9.87946e-11
1.78166e-08
-9.59827e-11
1.78389e-08
-9.32059e-11
1.78607e-08
-9.04828e-11
1.78818e-08
-8.794e-11
1.79023e-08
-8.52998e-11
1.79222e-08
-8.2979e-11
1.79415e-08
-8.0419e-11
1.79603e-08
-7.83058e-11
1.79785e-08
-7.5825e-11
1.79963e-08
-7.38995e-11
1.80134e-08
-7.14991e-11
1.80302e-08
-6.97375e-11
1.80464e-08
-6.74242e-11
1.80621e-08
-6.58038e-11
1.80774e-08
-6.35916e-11
1.80923e-08
-6.20938e-11
1.81067e-08
-5.99982e-11
1.81208e-08
-5.86056e-11
1.81343e-08
-5.66316e-11
1.81476e-08
-5.53257e-11
1.81604e-08
-5.34603e-11
1.8173e-08
-5.22256e-11
1.81851e-08
-5.04421e-11
1.81969e-08
-4.92752e-11
1.82083e-08
-4.75469e-11
1.82195e-08
-4.64635e-11
1.82302e-08
-4.47779e-11
1.82407e-08
-4.38088e-11
1.82508e-08
-4.21746e-11
1.82607e-08
-4.13531e-11
1.82703e-08
-3.97982e-11
1.82797e-08
-3.91442e-11
1.82887e-08
-3.77044e-11
1.82976e-08
-3.72104e-11
1.83062e-08
-3.59101e-11
1.83147e-08
-3.55293e-11
1.83229e-08
-3.4356e-11
1.83311e-08
-3.39947e-11
1.83389e-08
-3.28784e-11
1.83467e-08
-3.23979e-11
1.83542e-08
-3.12106e-11
1.83615e-08
-3.04489e-11
1.83685e-08
-2.90339e-11
1.83753e-08
-2.78496e-11
1.83817e-08
-2.60771e-11
1.83876e-08
-2.44033e-11
1.83931e-08
-2.22298e-11
1.83982e-08
-2.01148e-11
1.84026e-08
-1.76174e-11
1.84065e-08
-1.52284e-11
1.84097e-08
-1.25961e-11
1.84124e-08
-1.01806e-11
1.84145e-08
-7.6626e-12
1.8416e-08
-5.48027e-12
1.8417e-08
-3.31431e-12
1.84176e-08
-1.5692e-12
1.84177e-08
8.16566e-14
1.84175e-08
1.28414e-12
1.84171e-08
2.36368e-12
1.84164e-08
3.02372e-12
1.84157e-08
3.57784e-12
1.84148e-08
3.77825e-12
1.84139e-08
3.92247e-12
1.8413e-08
3.79129e-12
1.84121e-08
3.6678e-12
1.84113e-08
3.34118e-12
1.84105e-08
3.08232e-12
1.84098e-08
2.67685e-12
1.84092e-08
2.38406e-12
1.84087e-08
1.98182e-12
1.84083e-08
1.72014e-12
1.84079e-08
1.36649e-12
1.84076e-08
1.16855e-12
1.84074e-08
8.79574e-13
1.84072e-08
7.53083e-13
1.8407e-08
5.27582e-13
1.84069e-08
4.63392e-13
1.84068e-08
2.93209e-13
1.84068e-08
2.73608e-13
1.84067e-08
1.49475e-13
1.84067e-08
1.55315e-13
1.84067e-08
6.89273e-14
1.84066e-08
8.42713e-14
1.84066e-08
2.84569e-14
1.84066e-08
4.2888e-14
1.84066e-08
1.06345e-14
1.84066e-08
1.98534e-14
1.84066e-08
3.83071e-15
1.84066e-08
7.8941e-15
1.84066e-08
1.87701e-15
1.84066e-08
1.46975e-15
1.84066e-08
2.95795e-15
1.84066e-08
-3.53761e-15
1.84066e-08
6.60356e-15
1.84066e-08
-9.01505e-15
1.84066e-08
1.17535e-14
1.84066e-08
-1.43671e-14
1.84066e-08
1.624e-14
1.84066e-08
-1.75959e-14
1.84066e-08
1.79885e-14
1.84066e-08
-1.7839e-14
1.84066e-08
1.72091e-14
1.84066e-08
-1.66894e-14
1.84066e-08
1.64969e-14
1.84066e-08
-1.70341e-14
1.84066e-08
1.83354e-14
1.84066e-08
-2.03785e-14
1.84066e-08
2.31316e-14
1.84066e-08
-2.63203e-14
1.84066e-08
3.00226e-14
1.84066e-08
-3.41765e-14
1.84066e-08
3.90198e-14
1.84066e-08
-4.46095e-14
1.84066e-08
5.08895e-14
1.84066e-08
-5.73605e-14
1.84066e-08
6.32693e-14
1.84066e-08
-6.74858e-14
1.84066e-08
6.92832e-14
1.84066e-08
-6.85196e-14
1.84066e-08
6.61206e-14
1.84066e-08
-6.33567e-14
1.84066e-08
6.1592e-14
1.84066e-08
-6.09036e-14
1.84066e-08
6.05725e-14
1.84066e-08
-5.87637e-14
1.84066e-08
5.43186e-14
1.84066e-08
-4.67545e-14
1.84066e-08
3.68889e-14
1.84066e-08
-2.59875e-14
1.84066e-08
1.4518e-14
1.84066e-08
-1.33082e-15
1.84066e-08
-1.57988e-14
1.84066e-08
3.62538e-14
1.84066e-08
-7.00432e-14
1.84066e-08
8.99745e-14
1.84066e-08
-3.4455e-13
1.84068e-08
-1.3498e-13
-4.74499e-12
1.31405e-08
-3.16567e-09
1.3516e-08
-1.91325e-09
1.37923e-08
-1.35668e-09
1.40115e-08
-1.11097e-09
1.41936e-08
-9.02174e-10
1.43545e-08
-8.08661e-10
1.45013e-08
-7.31262e-10
1.46367e-08
-6.78253e-10
1.4764e-08
-6.35484e-10
1.48839e-08
-5.9981e-10
1.49981e-08
-5.70514e-10
1.51069e-08
-5.4435e-10
1.52114e-08
-5.22195e-10
1.53116e-08
-5.0174e-10
1.54082e-08
-4.83967e-10
1.55013e-08
-4.67097e-10
1.55913e-08
-4.52193e-10
1.56782e-08
-4.37649e-10
1.57625e-08
-4.24699e-10
1.5844e-08
-4.11711e-10
1.5923e-08
-4.00142e-10
1.59995e-08
-3.88235e-10
1.60737e-08
-3.77689e-10
1.61456e-08
-3.66571e-10
1.62154e-08
-3.56822e-10
1.6283e-08
-3.46315e-10
1.63486e-08
-3.37225e-10
1.64121e-08
-3.27223e-10
1.64739e-08
-3.18703e-10
1.65336e-08
-3.09145e-10
1.65917e-08
-3.01139e-10
1.66479e-08
-2.9199e-10
1.67025e-08
-2.84459e-10
1.67554e-08
-2.75701e-10
1.68068e-08
-2.68613e-10
1.68565e-08
-2.60238e-10
1.69048e-08
-2.53567e-10
1.69516e-08
-2.45569e-10
1.69971e-08
-2.39291e-10
1.7041e-08
-2.31668e-10
1.70838e-08
-2.25757e-10
1.71252e-08
-2.18509e-10
1.71654e-08
-2.12939e-10
1.72044e-08
-2.06065e-10
1.72422e-08
-2.00809e-10
1.72789e-08
-1.94308e-10
1.73145e-08
-1.89341e-10
1.7349e-08
-1.8321e-10
1.73825e-08
-1.78506e-10
1.7415e-08
-1.72741e-10
1.74465e-08
-1.68274e-10
1.74771e-08
-1.62872e-10
1.75068e-08
-1.58618e-10
1.75356e-08
-1.53572e-10
1.75636e-08
-1.4951e-10
1.75907e-08
-1.44811e-10
1.7617e-08
-1.4092e-10
1.76426e-08
-1.3656e-10
1.76674e-08
-1.32823e-10
1.76915e-08
-1.28791e-10
1.77148e-08
-1.25192e-10
1.77375e-08
-1.21476e-10
1.77595e-08
-1.18002e-10
1.77809e-08
-1.14589e-10
1.78017e-08
-1.11227e-10
1.78218e-08
-1.08102e-10
1.78414e-08
-1.04845e-10
1.78604e-08
-1.01992e-10
1.78788e-08
-9.88378e-11
1.78967e-08
-9.62395e-11
1.79141e-08
-9.31853e-11
1.7931e-08
-9.08169e-11
1.79474e-08
-8.78643e-11
1.79633e-08
-8.56965e-11
1.79788e-08
-8.28534e-11
1.79938e-08
-8.08579e-11
1.80084e-08
-7.81409e-11
1.80226e-08
-7.62948e-11
1.80363e-08
-7.37223e-11
1.80497e-08
-7.20051e-11
1.80626e-08
-6.95831e-11
1.80753e-08
-6.79731e-11
1.80875e-08
-6.56854e-11
1.80995e-08
-6.41643e-11
1.8111e-08
-6.19777e-11
1.81223e-08
-6.05411e-11
1.81331e-08
-5.84221e-11
1.81438e-08
-5.70879e-11
1.8154e-08
-5.50204e-11
1.8164e-08
-5.38248e-11
1.81737e-08
-5.18191e-11
1.81831e-08
-5.08017e-11
1.81922e-08
-4.88926e-11
1.82011e-08
-4.80774e-11
1.82097e-08
-4.63101e-11
1.82182e-08
-4.56893e-11
1.82264e-08
-4.40959e-11
1.82345e-08
-4.36154e-11
1.82423e-08
-4.21832e-11
1.82501e-08
-4.17327e-11
1.82576e-08
-4.03789e-11
1.8265e-08
-3.97928e-11
1.82721e-08
-3.83624e-11
1.82791e-08
-3.74444e-11
1.82858e-08
-3.57447e-11
1.82923e-08
-3.43199e-11
1.82984e-08
-3.21875e-11
1.83042e-08
-3.0168e-11
1.83095e-08
-2.75417e-11
1.83143e-08
-2.49778e-11
1.83187e-08
-2.1944e-11
1.83225e-08
-1.90319e-11
1.83257e-08
-1.58156e-11
1.83284e-08
-1.28529e-11
1.83305e-08
-9.75722e-12
1.8332e-08
-7.06171e-12
1.83331e-08
-4.38071e-12
1.83337e-08
-2.20682e-12
1.8334e-08
-1.46598e-13
1.83339e-08
1.3691e-12
1.83335e-08
2.73203e-12
1.8333e-08
3.58205e-12
1.83322e-08
4.29718e-12
1.83314e-08
4.57715e-12
1.83306e-08
4.78165e-12
1.83297e-08
4.64554e-12
1.83289e-08
4.51201e-12
1.83281e-08
4.12649e-12
1.83274e-08
3.81782e-12
1.83267e-08
3.32743e-12
1.83261e-08
2.97011e-12
1.83256e-08
2.47791e-12
1.83252e-08
2.15426e-12
1.83248e-08
1.71833e-12
1.83245e-08
1.47061e-12
1.83243e-08
1.11277e-12
1.83241e-08
9.51979e-13
1.8324e-08
6.72188e-13
1.83238e-08
5.88006e-13
1.83238e-08
3.77018e-13
1.83237e-08
3.48142e-13
1.83236e-08
1.94767e-13
1.83236e-08
1.9788e-13
1.83236e-08
9.17339e-14
1.83235e-08
1.07331e-13
1.83235e-08
3.92493e-14
1.83235e-08
5.45409e-14
1.83235e-08
1.55612e-14
1.83235e-08
2.51908e-14
1.83235e-08
6.11632e-15
1.83235e-08
9.93837e-15
1.83235e-08
3.1529e-15
1.83235e-08
1.7074e-15
1.83235e-08
4.25552e-15
1.83235e-08
-4.65021e-15
1.83235e-08
8.63966e-15
1.83235e-08
-1.14525e-14
1.83235e-08
1.48582e-14
1.83235e-08
-1.7954e-14
1.83235e-08
2.02148e-14
1.83235e-08
-2.17956e-14
1.83235e-08
2.22493e-14
1.83235e-08
-2.20644e-14
1.83235e-08
2.13351e-14
1.83235e-08
-2.07807e-14
1.83235e-08
2.06486e-14
1.83235e-08
-2.14182e-14
1.83235e-08
2.31205e-14
1.83235e-08
-2.57174e-14
1.83235e-08
2.91712e-14
1.83235e-08
-3.31538e-14
1.83235e-08
3.77742e-14
1.83235e-08
-4.29602e-14
1.83235e-08
4.89931e-14
1.83235e-08
-5.59292e-14
1.83235e-08
6.36632e-14
1.83235e-08
-7.15642e-14
1.83235e-08
7.87085e-14
1.83235e-08
-8.37526e-14
1.83235e-08
8.58839e-14
1.83235e-08
-8.50075e-14
1.83235e-08
8.23026e-14
1.83235e-08
-7.92986e-14
1.83235e-08
7.75792e-14
1.83235e-08
-7.7157e-14
1.83235e-08
7.71282e-14
1.83235e-08
-7.53199e-14
1.83235e-08
7.0456e-14
1.83235e-08
-6.20842e-14
1.83235e-08
5.12813e-14
1.83235e-08
-3.96493e-14
1.83235e-08
2.79024e-14
1.83235e-08
-1.50019e-14
1.83235e-08
-1.0695e-15
1.83235e-08
1.85464e-14
1.83235e-08
-4.85161e-14
1.83235e-08
5.57387e-14
1.83235e-08
-3.4468e-13
1.83237e-08
-2.78672e-13
-6.20012e-12
1.31424e-08
-3.80809e-09
1.35191e-08
-2.28991e-09
1.37953e-08
-1.6329e-09
1.40144e-08
-1.33006e-09
1.41964e-08
-1.08421e-09
1.43573e-08
-9.6953e-10
1.45041e-08
-8.78069e-10
1.46396e-08
-8.1372e-10
1.47669e-08
-7.62824e-10
1.48869e-08
-7.19769e-10
1.5001e-08
-6.84707e-10
1.51099e-08
-6.53163e-10
1.52142e-08
-6.26513e-10
1.53142e-08
-6.01798e-10
1.54106e-08
-5.80304e-10
1.55033e-08
-5.59841e-10
1.55928e-08
-5.41723e-10
1.56792e-08
-5.24013e-10
1.57627e-08
-5.08203e-10
1.58433e-08
-4.92343e-10
1.59214e-08
-4.78182e-10
1.59968e-08
-4.63627e-10
1.60698e-08
-4.50703e-10
1.61403e-08
-4.37119e-10
1.62087e-08
-4.25179e-10
1.62747e-08
-4.12364e-10
1.63388e-08
-4.01247e-10
1.64006e-08
-3.89081e-10
1.64606e-08
-3.78685e-10
1.65186e-08
-3.67094e-10
1.65748e-08
-3.57352e-10
1.66291e-08
-3.46293e-10
1.66818e-08
-3.37155e-10
1.67327e-08
-3.26603e-10
1.67821e-08
-3.18027e-10
1.68298e-08
-3.07966e-10
1.68762e-08
-2.99918e-10
1.69209e-08
-2.90338e-10
1.69644e-08
-2.82782e-10
1.70064e-08
-2.73677e-10
1.70473e-08
-2.66578e-10
1.70867e-08
-2.57942e-10
1.7125e-08
-2.51268e-10
1.7162e-08
-2.43095e-10
1.7198e-08
-2.36809e-10
1.72328e-08
-2.29095e-10
1.72667e-08
-2.23165e-10
1.72994e-08
-2.15903e-10
1.73311e-08
-2.10294e-10
1.73619e-08
-2.03477e-10
1.73918e-08
-1.98158e-10
1.74207e-08
-1.91778e-10
1.74488e-08
-1.86721e-10
1.7476e-08
-1.80768e-10
1.75024e-08
-1.75943e-10
1.7528e-08
-1.70406e-10
1.75529e-08
-1.6579e-10
1.7577e-08
-1.60657e-10
1.76004e-08
-1.56227e-10
1.76231e-08
-1.51484e-10
1.76451e-08
-1.47222e-10
1.76665e-08
-1.42853e-10
1.76872e-08
-1.38743e-10
1.77073e-08
-1.34732e-10
1.77269e-08
-1.30758e-10
1.77459e-08
-1.27086e-10
1.77643e-08
-1.23241e-10
1.77822e-08
-1.1989e-10
1.77995e-08
-1.16167e-10
1.78164e-08
-1.13115e-10
1.78327e-08
-1.09514e-10
1.78486e-08
-1.06732e-10
1.7864e-08
-1.03254e-10
1.7879e-08
-1.00707e-10
1.78935e-08
-9.73603e-11
1.79077e-08
-9.50147e-11
1.79213e-08
-9.18183e-11
1.79347e-08
-8.96473e-11
1.79476e-08
-8.66222e-11
1.79602e-08
-8.46024e-11
1.79724e-08
-8.17552e-11
1.79843e-08
-7.98621e-11
1.79957e-08
-7.71738e-11
1.8007e-08
-7.53866e-11
1.80178e-08
-7.28178e-11
1.80284e-08
-7.1131e-11
1.80386e-08
-6.86417e-11
1.80486e-08
-6.70749e-11
1.80582e-08
-6.46455e-11
1.80676e-08
-6.32393e-11
1.80767e-08
-6.08819e-11
1.80856e-08
-5.96811e-11
1.80941e-08
-5.74369e-11
1.81025e-08
-5.64694e-11
1.81106e-08
-5.43929e-11
1.81186e-08
-5.36511e-11
1.81263e-08
-5.17816e-11
1.81338e-08
-5.12055e-11
1.81412e-08
-4.95312e-11
1.81485e-08
-4.89962e-11
1.81555e-08
-4.74229e-11
1.81624e-08
-4.67396e-11
1.81692e-08
-4.50875e-11
1.81758e-08
-4.40284e-11
1.81821e-08
-4.20709e-11
1.81882e-08
-4.04295e-11
1.8194e-08
-3.79704e-11
1.81994e-08
-3.56376e-11
1.82045e-08
-3.25977e-11
1.82091e-08
-2.96233e-11
1.82133e-08
-2.6095e-11
1.8217e-08
-2.26997e-11
1.82201e-08
-1.89398e-11
1.82227e-08
-1.54664e-11
1.82248e-08
-1.18276e-11
1.82264e-08
-8.64791e-12
1.82275e-08
-5.47724e-12
1.82281e-08
-2.89368e-12
1.82284e-08
-4.39126e-13
1.82284e-08
1.38063e-12
1.82281e-08
3.0214e-12
1.82277e-08
4.06045e-12
1.8227e-08
4.93827e-12
1.82263e-08
5.30241e-12
1.82255e-08
5.5732e-12
1.82247e-08
5.4396e-12
1.82239e-08
5.30373e-12
1.82232e-08
4.86737e-12
1.82225e-08
4.51633e-12
1.82218e-08
3.94824e-12
1.82213e-08
3.53245e-12
1.82208e-08
2.956e-12
1.82204e-08
2.57466e-12
1.822e-08
2.06058e-12
1.82198e-08
1.76566e-12
1.82195e-08
1.34176e-12
1.82193e-08
1.14785e-12
1.82192e-08
8.1568e-13
1.82191e-08
7.11654e-13
1.8219e-08
4.61213e-13
1.82189e-08
4.22614e-13
1.82189e-08
2.40974e-13
1.82188e-08
2.40685e-13
1.82188e-08
1.15462e-13
1.82188e-08
1.30686e-13
1.82188e-08
5.07388e-14
1.82187e-08
6.64738e-14
1.82187e-08
2.09108e-14
1.82187e-08
3.07791e-14
1.82187e-08
8.60131e-15
1.82187e-08
1.21956e-14
1.82187e-08
4.48404e-15
1.82187e-08
2.12622e-15
1.82187e-08
5.50911e-15
1.82187e-08
-5.57496e-15
1.82187e-08
1.05313e-14
1.82187e-08
-1.36422e-14
1.82187e-08
1.77036e-14
1.82187e-08
-2.12057e-14
1.82187e-08
2.38341e-14
1.82187e-08
-2.56066e-14
1.82187e-08
2.61277e-14
1.82187e-08
-2.59215e-14
1.82187e-08
2.51284e-14
1.82187e-08
-2.45768e-14
1.82187e-08
2.45426e-14
1.82187e-08
-2.5571e-14
1.82187e-08
2.76883e-14
1.82187e-08
-3.08397e-14
1.82187e-08
3.49827e-14
1.82187e-08
-3.9741e-14
1.82187e-08
4.52535e-14
1.82187e-08
-5.14375e-14
1.82187e-08
5.86107e-14
1.82187e-08
-6.68242e-14
1.82187e-08
7.59212e-14
1.82187e-08
-8.51494e-14
1.82187e-08
9.3434e-14
1.82187e-08
-9.92497e-14
1.82187e-08
1.01724e-13
1.82187e-08
-1.00819e-13
1.82187e-08
9.7952e-14
1.82187e-08
-9.48792e-14
1.82187e-08
9.337e-14
1.82187e-08
-9.33695e-14
1.82187e-08
9.38129e-14
1.82187e-08
-9.22431e-14