/*--------------------------------*- C++ -*----------------------------------*\
| =========                 |                                                 |
| \\      /  F ield         | OpenFOAM: The Open Source CFD Toolbox           |
|  \\    /   O peration     | Version:  2412                                  |
|   \\  /    A nd           | Website:  www.openfoam.com                      |
|    \\/     M anipulation  |                                                 |
\*---------------------------------------------------------------------------*/
FoamFile
{
    version     2.0;
    format      ascii;
    arch        "LSB;label=32;scalar=64";
    class       volVectorField;
    location    "500";
    object      U;
}
// * * * * * * * * * * * * * * * * * * * * * * * * * * * * * * * * * * * * * //

dimensions      [0 1 -1 0 0 0 0];

internalField   nonuniform List<vector> 
8000
(
(0.0500302 -4.09745e-05 0)
(0.0544558 -2.79039e-05 0)
(0.0540812 -1.65005e-05 0)
(0.0559594 -1.56373e-05 0)
(0.0562394 -1.15214e-05 0)
(0.0571882 -1.1023e-05 0)
(0.0576482 -9.59495e-06 0)
(0.0582939 -9.11024e-06 0)
(0.058768 -8.42103e-06 0)
(0.0592909 -8.01303e-06 0)
(0.059738 -7.58723e-06 0)
(0.0601976 -7.26e-06 0)
(0.0606119 -6.95662e-06 0)
(0.0610318 -6.69226e-06 0)
(0.0614158 -6.45734e-06 0)
(0.0618069 -6.23756e-06 0)
(0.0621644 -6.04531e-06 0)
(0.0625328 -5.8561e-06 0)
(0.0628669 -5.69203e-06 0)
(0.0632164 -5.52359e-06 0)
(0.0635292 -5.37887e-06 0)
(0.0638624 -5.22459e-06 0)
(0.0641556 -5.09366e-06 0)
(0.064474 -4.94928e-06 0)
(0.0647487 -4.82863e-06 0)
(0.0650538 -4.69148e-06 0)
(0.0653108 -4.57893e-06 0)
(0.0656034 -4.44744e-06 0)
(0.0658435 -4.34164e-06 0)
(0.0661246 -4.21496e-06 0)
(0.0663483 -4.11507e-06 0)
(0.0666184 -3.99278e-06 0)
(0.0668264 -3.89828e-06 0)
(0.0670862 -3.78026e-06 0)
(0.067279 -3.69078e-06 0)
(0.067529 -3.57705e-06 0)
(0.0677072 -3.49229e-06 0)
(0.0679479 -3.38295e-06 0)
(0.0681121 -3.30265e-06 0)
(0.068344 -3.19784e-06 0)
(0.0684949 -3.12171e-06 0)
(0.0687183 -3.02159e-06 0)
(0.0688566 -2.94935e-06 0)
(0.0690718 -2.85404e-06 0)
(0.0691982 -2.78539e-06 0)
(0.0694056 -2.69501e-06 0)
(0.0695209 -2.62964e-06 0)
(0.0697207 -2.54427e-06 0)
(0.0698255 -2.48187e-06 0)
(0.070018 -2.40156e-06 0)
(0.0701131 -2.34183e-06 0)
(0.0702984 -2.26657e-06 0)
(0.0703846 -2.20923e-06 0)
(0.0705628 -2.13902e-06 0)
(0.0706408 -2.08379e-06 0)
(0.0708122 -2.01856e-06 0)
(0.0708827 -1.96521e-06 0)
(0.0710473 -1.90485e-06 0)
(0.0711111 -1.85319e-06 0)
(0.0712689 -1.79758e-06 0)
(0.0713266 -1.74742e-06 0)
(0.0714778 -1.6964e-06 0)
(0.07153 -1.64761e-06 0)
(0.0716747 -1.60098e-06 0)
(0.0717221 -1.55342e-06 0)
(0.0718603 -1.51098e-06 0)
(0.0719033 -1.46461e-06 0)
(0.0720353 -1.42614e-06 0)
(0.0720745 -1.38093e-06 0)
(0.0722002 -1.34616e-06 0)
(0.0722361 -1.30212e-06 0)
(0.0723557 -1.27069e-06 0)
(0.0723886 -1.22785e-06 0)
(0.0725023 -1.19934e-06 0)
(0.0725326 -1.15786e-06 0)
(0.0726405 -1.1319e-06 0)
(0.0726685 -1.09206e-06 0)
(0.0727708 -1.06831e-06 0)
(0.0727968 -1.03041e-06 0)
(0.0728937 -1.0085e-06 0)
(0.0729179 -9.72627e-07 0)
(0.0730098 -9.52155e-07 0)
(0.0730323 -9.1811e-07 0)
(0.0731193 -8.98739e-07 0)
(0.0731403 -8.66127e-07 0)
(0.0732226 -8.47796e-07 0)
(0.0732422 -8.1626e-07 0)
(0.07332 -7.99292e-07 0)
(0.0733382 -7.68714e-07 0)
(0.0734117 -7.53719e-07 0)
(0.0734288 -7.24293e-07 0)
(0.0734981 -7.119e-07 0)
(0.0735143 -6.84079e-07 0)
(0.0735797 -6.74621e-07 0)
(0.0735952 -6.48917e-07 0)
(0.0736571 -6.42155e-07 0)
(0.0736722 -6.18801e-07 0)
(0.073731 -6.13712e-07 0)
(0.0737458 -5.92242e-07 0)
(0.0738017 -5.86909e-07 0)
(0.0738161 -5.65863e-07 0)
(0.0738693 -5.5762e-07 0)
(0.073883 -5.34635e-07 0)
(0.0739333 -5.20581e-07 0)
(0.0739455 -4.93022e-07 0)
(0.0739924 -4.70899e-07 0)
(0.0740023 -4.36872e-07 0)
(0.0740449 -4.06005e-07 0)
(0.0740514 -3.65315e-07 0)
(0.0740891 -3.27181e-07 0)
(0.0740912 -2.81756e-07 0)
(0.0741233 -2.39839e-07 0)
(0.0741207 -1.93355e-07 0)
(0.074147 -1.52256e-07 0)
(0.0741396 -1.09106e-07 0)
(0.0741606 -7.32786e-08 0)
(0.074149 -3.73187e-08 0)
(0.0741655 -9.93384e-09 0)
(0.0741508 1.64941e-08 0)
(0.0741638 3.41388e-08 0)
(0.074147 5.0591e-08 0)
(0.0741579 5.90111e-08 0)
(0.0741402 6.67098e-08 0)
(0.0741499 6.76986e-08 0)
(0.0741323 6.88909e-08 0)
(0.0741416 6.48195e-08 0)
(0.0741246 6.20279e-08 0)
(0.074134 5.52278e-08 0)
(0.074118 5.06615e-08 0)
(0.0741278 4.30171e-08 0)
(0.0741128 3.82693e-08 0)
(0.074123 3.10326e-08 0)
(0.0741091 2.70504e-08 0)
(0.0741197 2.08503e-08 0)
(0.0741066 1.80511e-08 0)
(0.0741174 1.30449e-08 0)
(0.074105 1.14683e-08 0)
(0.0741159 7.55375e-09 0)
(0.0741041 6.99713e-09 0)
(0.074115 3.99127e-09 0)
(0.0741037 4.13528e-09 0)
(0.0741144 1.86882e-09 0)
(0.0741035 2.38388e-09 0)
(0.0741141 7.23958e-10 0)
(0.0741034 1.34193e-09 0)
(0.0741139 1.85053e-10 0)
(0.0741035 7.31917e-10 0)
(0.0741138 -2.209e-11 0)
(0.0741035 3.85577e-10 0)
(0.0741137 -7.84315e-11 0)
(0.0741035 2.02382e-10 0)
(0.0741137 -8.04497e-11 0)
(0.0741036 1.05533e-10 0)
(0.0741136 -5.09095e-11 0)
(0.0741036 2.96221e-11 0)
(0.0741136 1.3411e-11 0)
(0.0741036 -5.89095e-11 0)
(0.0741135 1.04545e-10 0)
(0.0741037 -1.53853e-10 0)
(0.0741135 1.90538e-10 0)
(0.0741037 -2.19834e-10 0)
(0.0741135 2.31282e-10 0)
(0.0741037 -2.32459e-10 0)
(0.0741135 2.22371e-10 0)
(0.0741037 -2.11295e-10 0)
(0.0741135 2.04625e-10 0)
(0.0741037 -2.08364e-10 0)
(0.0741135 2.25995e-10 0)
(0.0741037 -2.57003e-10 0)
(0.0741135 3.00522e-10 0)
(0.0741037 -3.52483e-10 0)
(0.0741135 4.1182e-10 0)
(0.0741037 -4.77904e-10 0)
(0.0741136 5.54127e-10 0)
(0.0741036 -6.41666e-10 0)
(0.0741136 7.43223e-10 0)
(0.0741036 -8.5126e-10 0)
(0.0741137 9.56117e-10 0)
(0.0741035 -1.03686e-09 0)
(0.0741137 1.07686e-09 0)
(0.0741034 -1.06766e-09 0)
(0.0741138 1.01919e-09 0)
(0.0741033 -9.53346e-10 0)
(0.0741139 8.97886e-10 0)
(0.0741033 -8.62679e-10 0)
(0.0741139 8.40696e-10 0)
(0.0741033 -7.99791e-10 0)
(0.074114 7.12005e-10 0)
(0.0741032 -5.58574e-10 0)
(0.074114 3.4696e-10 0)
(0.0741033 -9.52116e-11 0)
(0.0741139 -1.88856e-10 0)
(0.0741033 5.38812e-10 0)
(0.0741138 -1.03685e-09 0)
(0.0741035 1.7558e-09 0)
(0.0741135 -3.04445e-09 0)
(0.0741039 4.86854e-09 0)
(0.074113 -1.36404e-08 0)
(0.0741053 1.95244e-08 0)
(0.0741111 -4.45487e-08 0)
(0.050029 -0.000124013 0)
(0.0544571 -8.08705e-05 0)
(0.054083 -5.14269e-05 0)
(0.0559613 -4.59643e-05 0)
(0.0562415 -3.51802e-05 0)
(0.0571904 -3.27932e-05 0)
(0.0576503 -2.89737e-05 0)
(0.0582962 -2.72553e-05 0)
(0.0587701 -2.53268e-05 0)
(0.0592933 -2.40224e-05 0)
(0.0597402 -2.27863e-05 0)
(0.0602002 -2.17801e-05 0)
(0.0606142 -2.08808e-05 0)
(0.0610343 -2.00807e-05 0)
(0.0614179 -1.93768e-05 0)
(0.0618093 -1.87161e-05 0)
(0.0621662 -1.81366e-05 0)
(0.0625348 -1.75694e-05 0)
(0.0628681 -1.7073e-05 0)
(0.0632176 -1.65689e-05 0)
(0.0635295 -1.61299e-05 0)
(0.0638624 -1.56686e-05 0)
(0.0641544 -1.52708e-05 0)
(0.0644725 -1.48395e-05 0)
(0.0647458 -1.44724e-05 0)
(0.0650504 -1.40631e-05 0)
(0.0653058 -1.37204e-05 0)
(0.0655978 -1.33284e-05 0)
(0.0658362 -1.30061e-05 0)
(0.0661164 -1.26288e-05 0)
(0.0663383 -1.23245e-05 0)
(0.0666075 -1.19606e-05 0)
(0.0668135 -1.16727e-05 0)
(0.0670723 -1.13217e-05 0)
(0.0672631 -1.10492e-05 0)
(0.067512 -1.07111e-05 0)
(0.0676882 -1.04531e-05 0)
(0.0679278 -1.01282e-05 0)
(0.06809 -9.8839e-06 0)
(0.0683207 -9.57249e-06 0)
(0.0684697 -9.34115e-06 0)
(0.0686918 -9.04361e-06 0)
(0.0688283 -8.82437e-06 0)
(0.0690422 -8.54103e-06 0)
(0.0691668 -8.333e-06 0)
(0.0693729 -8.06415e-06 0)
(0.0694865 -7.86641e-06 0)
(0.0696849 -7.61225e-06 0)
(0.0697882 -7.42388e-06 0)
(0.0699792 -7.18452e-06 0)
(0.070073 -7.00462e-06 0)
(0.0702568 -6.78006e-06 0)
(0.0703418 -6.60776e-06 0)
(0.0705185 -6.39791e-06 0)
(0.0705954 -6.23241e-06 0)
(0.0707652 -6.03709e-06 0)
(0.0708348 -5.87765e-06 0)
(0.0709978 -5.69657e-06 0)
(0.0710608 -5.54256e-06 0)
(0.071217 -5.37535e-06 0)
(0.071274 -5.22622e-06 0)
(0.0714236 -5.07244e-06 0)
(0.0714752 -4.9277e-06 0)
(0.0716184 -4.78681e-06 0)
(0.0716652 -4.64606e-06 0)
(0.0718019 -4.51746e-06 0)
(0.0718445 -4.38048e-06 0)
(0.0719749 -4.26355e-06 0)
(0.0720138 -4.13026e-06 0)
(0.072138 -4.02423e-06 0)
(0.0721736 -3.89461e-06 0)
(0.0722917 -3.79842e-06 0)
(0.0723244 -3.67257e-06 0)
(0.0724366 -3.58501e-06 0)
(0.0724668 -3.46334e-06 0)
(0.0725732 -3.38325e-06 0)
(0.0726012 -3.26658e-06 0)
(0.0727021 -3.19298e-06 0)
(0.072728 -3.08216e-06 0)
(0.0728236 -3.01403e-06 0)
(0.0728478 -2.90934e-06 0)
(0.0729383 -2.84557e-06 0)
(0.0729609 -2.74637e-06 0)
(0.0730466 -2.68603e-06 0)
(0.0730676 -2.59106e-06 0)
(0.0731487 -2.53398e-06 0)
(0.0731684 -2.44206e-06 0)
(0.073245 -2.38916e-06 0)
(0.0732633 -2.2998e-06 0)
(0.0733357 -2.25284e-06 0)
(0.0733529 -2.16658e-06 0)
(0.0734211 -2.1274e-06 0)
(0.0734374 -2.04562e-06 0)
(0.0735018 -2.01522e-06 0)
(0.0735173 -1.93958e-06 0)
(0.0735782 -1.91736e-06 0)
(0.0735933 -1.84876e-06 0)
(0.0736511 -1.83189e-06 0)
(0.0736659 -1.76923e-06 0)
(0.0737209 -1.75227e-06 0)
(0.0737353 -1.69146e-06 0)
(0.0737876 -1.66672e-06 0)
(0.0738014 -1.60084e-06 0)
(0.073851 -1.55974e-06 0)
(0.0738634 -1.48085e-06 0)
(0.0739098 -1.41641e-06 0)
(0.07392 -1.31847e-06 0)
(0.0739625 -1.22817e-06 0)
(0.0739695 -1.11e-06 0)
(0.0740073 -9.97575e-07 0)
(0.0740101 -8.64323e-07 0)
(0.0740425 -7.39581e-07 0)
(0.0740407 -6.01823e-07 0)
(0.0740675 -4.78204e-07 0)
(0.074061 -3.49008e-07 0)
(0.0740824 -2.39882e-07 0)
(0.0740718 -1.31056e-07 0)
(0.0740885 -4.62843e-08 0)
(0.0740746 3.46668e-08 0)
(0.0740878 9.06651e-08 0)
(0.0740718 1.41875e-07 0)
(0.0740826 1.70123e-07 0)
(0.0740655 1.9482e-07 0)
(0.0740751 2.00322e-07 0)
(0.0740578 2.04986e-07 0)
(0.0740669 1.94682e-07 0)
(0.0740502 1.86805e-07 0)
(0.0740594 1.67698e-07 0)
(0.0740435 1.5397e-07 0)
(0.0740531 1.31832e-07 0)
(0.0740382 1.17182e-07 0)
(0.0740482 9.59215e-08 0)
(0.0740344 8.33586e-08 0)
(0.0740447 6.50064e-08 0)
(0.0740317 5.59227e-08 0)
(0.0740423 4.10636e-08 0)
(0.0740301 3.56665e-08 0)
(0.0740407 2.40712e-08 0)
(0.0740291 2.17934e-08 0)
(0.0740397 1.29549e-08 0)
(0.0740286 1.28493e-08 0)
(0.0740391 6.27032e-09 0)
(0.0740284 7.34562e-09 0)
(0.0740388 2.61942e-09 0)
(0.0740283 4.06411e-09 0)
(0.0740386 8.62469e-10 0)
(0.0740283 2.14893e-09 0)
(0.0740384 1.51783e-10 0)
(0.0740283 1.07172e-09 0)
(0.0740383 -7.26027e-11 0)
(0.0740283 5.07476e-10 0)
(0.0740383 -1.08093e-10 0)
(0.0740284 2.0839e-10 0)
(0.0740382 -2.87461e-11 0)
(0.0740284 -2.77629e-11 0)
(0.0740382 1.6385e-10 0)
(0.0740285 -2.9876e-10 0)
(0.0740382 4.35768e-10 0)
(0.0740285 -5.79595e-10 0)
(0.0740382 6.8464e-10 0)
(0.0740285 -7.65474e-10 0)
(0.0740382 7.92652e-10 0)
(0.0740285 -7.91644e-10 0)
(0.0740382 7.58337e-10 0)
(0.0740285 -7.25567e-10 0)
(0.0740381 7.08598e-10 0)
(0.0740285 -7.23756e-10 0)
(0.0740381 7.81094e-10 0)
(0.0740285 -8.78109e-10 0)
(0.0740381 1.0113e-09 0)
(0.0740285 -1.16998e-09 0)
(0.0740382 1.3512e-09 0)
(0.0740285 -1.55457e-09 0)
(0.0740382 1.79058e-09 0)
(0.0740284 -2.06216e-09 0)
(0.0740382 2.37526e-09 0)
(0.0740284 -2.70317e-09 0)
(0.0740383 3.01499e-09 0)
(0.0740283 -3.24748e-09 0)
(0.0740384 3.35463e-09 0)
(0.0740282 -3.31851e-09 0)
(0.0740385 3.17509e-09 0)
(0.0740282 -2.99258e-09 0)
(0.0740385 2.84846e-09 0)
(0.0740281 -2.76374e-09 0)
(0.0740386 2.70895e-09 0)
(0.0740281 -2.58582e-09 0)
(0.0740386 2.31789e-09 0)
(0.0740281 -1.85983e-09 0)
(0.0740386 1.24187e-09 0)
(0.0740281 -5.18411e-10 0)
(0.0740386 -2.91827e-10 0)
(0.0740281 1.28929e-09 0)
(0.0740385 -2.69286e-09 0)
(0.0740283 4.66198e-09 0)
(0.0740383 -8.11043e-09 0)
(0.0740285 1.25799e-08 0)
(0.074038 -3.46134e-08 0)
(0.0740293 3.52089e-08 0)
(0.0740385 -1.6529e-07 0)
(0.0500283 -0.000208787 0)
(0.0544617 -0.000130391 0)
(0.0540873 -8.85881e-05 0)
(0.0559655 -7.513e-05 0)
(0.0562458 -5.95506e-05 0)
(0.0571948 -5.42227e-05 0)
(0.0576546 -4.85681e-05 0)
(0.0583008 -4.53039e-05 0)
(0.0587746 -4.23031e-05 0)
(0.0592981 -4.00078e-05 0)
(0.0597448 -3.80111e-05 0)
(0.060205 -3.6297e-05 0)
(0.0606188 -3.48143e-05 0)
(0.0610391 -3.34694e-05 0)
(0.0614223 -3.22962e-05 0)
(0.0618137 -3.11911e-05 0)
(0.06217 -3.02189e-05 0)
(0.0625383 -2.92718e-05 0)
(0.0628705 -2.84354e-05 0)
(0.0632196 -2.75938e-05 0)
(0.0635299 -2.68519e-05 0)
(0.063862 -2.60822e-05 0)
(0.064152 -2.54083e-05 0)
(0.0644689 -2.46893e-05 0)
(0.0647398 -2.40668e-05 0)
(0.0650428 -2.33853e-05 0)
(0.0652956 -2.28038e-05 0)
(0.0655856 -2.2152e-05 0)
(0.065821 -2.16051e-05 0)
(0.066099 -2.09786e-05 0)
(0.0663178 -2.04625e-05 0)
(0.0665845 -1.98592e-05 0)
(0.0667872 -1.93712e-05 0)
(0.0670434 -1.87901e-05 0)
(0.0672308 -1.83287e-05 0)
(0.067477 -1.77696e-05 0)
(0.0676497 -1.73332e-05 0)
(0.0678864 -1.67964e-05 0)
(0.0680453 -1.63838e-05 0)
(0.068273 -1.58697e-05 0)
(0.0684186 -1.54794e-05 0)
(0.0686378 -1.49884e-05 0)
(0.0687709 -1.46192e-05 0)
(0.0689819 -1.41517e-05 0)
(0.0691034 -1.3802e-05 0)
(0.0693065 -1.33583e-05 0)
(0.069417 -1.30266e-05 0)
(0.0696125 -1.2607e-05 0)
(0.0697129 -1.22918e-05 0)
(0.069901 -1.18963e-05 0)
(0.0699921 -1.1596e-05 0)
(0.070173 -1.12246e-05 0)
(0.0702554 -1.09377e-05 0)
(0.0704292 -1.05903e-05 0)
(0.0705038 -1.03154e-05 0)
(0.0706708 -9.9916e-06 0)
(0.0707382 -9.72748e-06 0)
(0.0708984 -9.4268e-06 0)
(0.0709593 -9.17234e-06 0)
(0.0711128 -8.89419e-06 0)
(0.071168 -8.64842e-06 0)
(0.0713149 -8.39209e-06 0)
(0.0713649 -8.15414e-06 0)
(0.0715053 -7.91876e-06 0)
(0.0715507 -7.6879e-06 0)
(0.0716848 -7.47253e-06 0)
(0.0717261 -7.24831e-06 0)
(0.0718539 -7.05196e-06 0)
(0.0718916 -6.83419e-06 0)
(0.0720133 -6.65563e-06 0)
(0.0720478 -6.44423e-06 0)
(0.0721635 -6.28177e-06 0)
(0.0721953 -6.07687e-06 0)
(0.0723051 -5.92851e-06 0)
(0.0723345 -5.73073e-06 0)
(0.0724386 -5.59456e-06 0)
(0.0724658 -5.40518e-06 0)
(0.0725645 -5.2796e-06 0)
(0.0725898 -5.09998e-06 0)
(0.0726833 -4.98342e-06 0)
(0.0727068 -4.81399e-06 0)
(0.0727954 -4.70473e-06 0)
(0.0728173 -4.54443e-06 0)
(0.0729011 -4.44102e-06 0)
(0.0729217 -4.28767e-06 0)
(0.0730009 -4.18986e-06 0)
(0.0730201 -4.04132e-06 0)
(0.073095 -3.95057e-06 0)
(0.0731129 -3.80592e-06 0)
(0.0731836 -3.72505e-06 0)
(0.0732005 -3.58508e-06 0)
(0.0732671 -3.51706e-06 0)
(0.073283 -3.38408e-06 0)
(0.0733459 -3.33061e-06 0)
(0.0733611 -3.20747e-06 0)
(0.0734205 -3.16772e-06 0)
(0.0734353 -3.05618e-06 0)
(0.0734916 -3.02574e-06 0)
(0.073506 -2.92433e-06 0)
(0.0735596 -2.89464e-06 0)
(0.0735737 -2.79696e-06 0)
(0.0736248 -2.75566e-06 0)
(0.0736383 -2.65056e-06 0)
(0.0736868 -2.58359e-06 0)
(0.073699 -2.45786e-06 0)
(0.0737445 -2.35346e-06 0)
(0.0737548 -2.19665e-06 0)
(0.0737966 -2.04996e-06 0)
(0.0738039 -1.85939e-06 0)
(0.0738413 -1.67568e-06 0)
(0.0738446 -1.45902e-06 0)
(0.0738769 -1.25367e-06 0)
(0.0738758 -1.02782e-06 0)
(0.0739026 -8.22554e-07 0)
(0.0738969 -6.08947e-07 0)
(0.0739184 -4.25893e-07 0)
(0.0739086 -2.44379e-07 0)
(0.0739256 -1.00306e-07 0)
(0.0739125 3.60661e-08 0)
(0.0739258 1.33132e-07 0)
(0.0739105 2.20546e-07 0)
(0.0739214 2.7158e-07 0)
(0.0739048 3.14768e-07 0)
(0.0739143 3.27527e-07 0)
(0.0738975 3.36835e-07 0)
(0.0739065 3.22558e-07 0)
(0.0738901 3.10261e-07 0)
(0.073899 2.80536e-07 0)
(0.0738835 2.57797e-07 0)
(0.0738927 2.22332e-07 0)
(0.0738782 1.97512e-07 0)
(0.0738878 1.62994e-07 0)
(0.0738742 1.41311e-07 0)
(0.0738842 1.11307e-07 0)
(0.0738715 9.52675e-08 0)
(0.0738817 7.09099e-08 0)
(0.0738698 6.09895e-08 0)
(0.0738801 4.20127e-08 0)
(0.0738688 3.73391e-08 0)
(0.0738791 2.29638e-08 0)
(0.0738682 2.19917e-08 0)
(0.0738784 1.14109e-08 0)
(0.0738679 1.24996e-08 0)
(0.0738781 5.02915e-09 0)
(0.0738678 6.82527e-09 0)
(0.0738778 1.89854e-09 0)
(0.0738678 3.51822e-09 0)
(0.0738777 5.81221e-10 0)
(0.0738678 1.66832e-09 0)
(0.0738776 1.24043e-10 0)
(0.0738679 7.03908e-10 0)
(0.0738776 2.07415e-11 0)
(0.0738679 1.9062e-10 0)
(0.0738775 1.36688e-10 0)
(0.0738679 -2.14204e-10 0)
(0.0738775 4.52529e-10 0)
(0.073868 -6.70602e-10 0)
(0.0738775 8.99139e-10 0)
(0.073868 -1.13093e-09 0)
(0.0738774 1.29957e-09 0)
(0.073868 -1.42508e-09 0)
(0.0738774 1.46318e-09 0)
(0.073868 -1.45737e-09 0)
(0.0738774 1.40038e-09 0)
(0.073868 -1.34827e-09 0)
(0.0738774 1.32454e-09 0)
(0.073868 -1.35496e-09 0)
(0.0738774 1.45538e-09 0)
(0.073868 -1.62041e-09 0)
(0.0738774 1.84416e-09 0)
(0.073868 -2.11055e-09 0)
(0.0738774 2.41567e-09 0)
(0.073868 -2.76019e-09 0)
(0.0738775 3.16136e-09 0)
(0.073868 -3.62347e-09 0)
(0.0738775 4.153e-09 0)
(0.0738679 -4.70156e-09 0)
(0.0738776 5.21604e-09 0)
(0.0738678 -5.59253e-09 0)
(0.0738777 5.76084e-09 0)
(0.0738677 -5.69987e-09 0)
(0.0738777 5.47604e-09 0)
(0.0738677 -5.20316e-09 0)
(0.0738778 5.00126e-09 0)
(0.0738676 -4.89474e-09 0)
(0.0738778 4.827e-09 0)
(0.0738676 -4.63675e-09 0)
(0.0738779 4.2093e-09 0)
(0.0738676 -3.48425e-09 0)
(0.0738779 2.52057e-09 0)
(0.0738676 -1.41087e-09 0)
(0.0738778 1.88739e-10 0)
(0.0738676 1.29149e-09 0)
(0.0738778 -3.3227e-09 0)
(0.0738677 6.03113e-09 0)
(0.0738777 -1.06119e-08 0)
(0.0738678 1.54358e-08 0)
(0.0738776 -4.35985e-08 0)
(0.0738681 1.71566e-08 0)
(0.0738791 -3.39609e-07 0)
(0.0500278 -0.000294027 0)
(0.0544695 -0.000180031 0)
(0.0540941 -0.000125617 0)
(0.0559721 -0.000104287 0)
(0.0562523 -8.38781e-05 0)
(0.0572015 -7.56473e-05 0)
(0.0576612 -6.81482e-05 0)
(0.0583076 -6.33489e-05 0)
(0.0587813 -5.92737e-05 0)
(0.0593051 -5.59906e-05 0)
(0.0597517 -5.32329e-05 0)
(0.0602122 -5.08104e-05 0)
(0.0606257 -4.87429e-05 0)
(0.0610462 -4.68499e-05 0)
(0.0614289 -4.52039e-05 0)
(0.0618201 -4.36488e-05 0)
(0.0621753 -4.22785e-05 0)
(0.0625431 -4.0944e-05 0)
(0.0628738 -3.97607e-05 0)
(0.0632217 -3.85734e-05 0)
(0.0635298 -3.75208e-05 0)
(0.0638602 -3.64343e-05 0)
(0.0641475 -3.54768e-05 0)
(0.0644621 -3.44619e-05 0)
(0.0647297 -3.35769e-05 0)
(0.0650298 -3.26159e-05 0)
(0.0652788 -3.17894e-05 0)
(0.0655655 -3.08716e-05 0)
(0.0657967 -3.0095e-05 0)
(0.0660711 -2.92146e-05 0)
(0.0662852 -2.84825e-05 0)
(0.066548 -2.76363e-05 0)
(0.066746 -2.69452e-05 0)
(0.0669979 -2.61317e-05 0)
(0.0671804 -2.54791e-05 0)
(0.0674222 -2.4698e-05 0)
(0.06759 -2.40817e-05 0)
(0.0678222 -2.3333e-05 0)
(0.067976 -2.27511e-05 0)
(0.0681992 -2.2035e-05 0)
(0.0683399 -2.14856e-05 0)
(0.0685546 -2.08026e-05 0)
(0.0686829 -2.02835e-05 0)
(0.0688893 -1.96339e-05 0)
(0.0690062 -1.91429e-05 0)
(0.0692047 -1.85271e-05 0)
(0.0693108 -1.8062e-05 0)
(0.0695019 -1.74799e-05 0)
(0.069598 -1.70385e-05 0)
(0.0697817 -1.64903e-05 0)
(0.0698687 -1.60702e-05 0)
(0.0700453 -1.55556e-05 0)
(0.0701239 -1.51549e-05 0)
(0.0702935 -1.46736e-05 0)
(0.0703646 -1.42903e-05 0)
(0.0705274 -1.38416e-05 0)
(0.0705915 -1.34738e-05 0)
(0.0707476 -1.30571e-05 0)
(0.0708055 -1.27033e-05 0)
(0.070955 -1.23177e-05 0)
(0.0710073 -1.19765e-05 0)
(0.0711504 -1.16209e-05 0)
(0.0711977 -1.1291e-05 0)
(0.0713344 -1.09643e-05 0)
(0.0713774 -1.06446e-05 0)
(0.0715078 -1.03455e-05 0)
(0.0715469 -1.00354e-05 0)
(0.0716712 -9.76243e-06 0)
(0.0717068 -9.46157e-06 0)
(0.0718251 -9.21307e-06 0)
(0.0718578 -8.92137e-06 0)
(0.0719702 -8.695e-06 0)
(0.0720003 -8.4126e-06 0)
(0.0721069 -8.20558e-06 0)
(0.0721347 -7.93329e-06 0)
(0.0722358 -7.74298e-06 0)
(0.0722616 -7.48248e-06 0)
(0.0723574 -7.30666e-06 0)
(0.0723813 -7.05981e-06 0)
(0.072472 -6.8964e-06 0)
(0.0724943 -6.66378e-06 0)
(0.0725802 -6.51054e-06 0)
(0.072601 -6.29063e-06 0)
(0.0726823 -6.14569e-06 0)
(0.0727018 -5.9354e-06 0)
(0.0727786 -5.79838e-06 0)
(0.0727968 -5.59464e-06 0)
(0.0728694 -5.46744e-06 0)
(0.0728865 -5.26882e-06 0)
(0.0729549 -5.15518e-06 0)
(0.072971 -4.96272e-06 0)
(0.0730355 -4.86663e-06 0)
(0.0730507 -4.68356e-06 0)
(0.0731115 -4.60735e-06 0)
(0.073126 -4.43782e-06 0)
(0.0731835 -4.3805e-06 0)
(0.0731976 -4.22722e-06 0)
(0.073252 -4.1831e-06 0)
(0.0732658 -4.04438e-06 0)
(0.0733176 -4.00215e-06 0)
(0.073331 -3.86959e-06 0)
(0.0733804 -3.81266e-06 0)
(0.0733933 -3.67106e-06 0)
(0.0734403 -3.58026e-06 0)
(0.073452 -3.41129e-06 0)
(0.0734963 -3.2701e-06 0)
(0.0735062 -3.05878e-06 0)
(0.073547 -2.85973e-06 0)
(0.0735542 -2.60142e-06 0)
(0.0735908 -2.35072e-06 0)
(0.0735944 -2.055e-06 0)
(0.0736262 -1.77286e-06 0)
(0.0736255 -1.46234e-06 0)
(0.0736521 -1.17815e-06 0)
(0.0736471 -8.82245e-07 0)
(0.0736685 -6.26577e-07 0)
(0.0736595 -3.73063e-07 0)
(0.0736765 -1.69643e-07 0)
(0.0736641 2.26737e-08 0)
(0.0736775 1.61875e-07 0)
(0.0736629 2.86821e-07 0)
(0.0736738 3.62258e-07 0)
(0.0736579 4.25606e-07 0)
(0.0736673 4.47338e-07 0)
(0.0736511 4.62908e-07 0)
(0.0736598 4.46153e-07 0)
(0.073644 4.30752e-07 0)
(0.0736526 3.91528e-07 0)
(0.0736375 3.60681e-07 0)
(0.0736464 3.12608e-07 0)
(0.0736323 2.78132e-07 0)
(0.0736415 2.30734e-07 0)
(0.0736283 2.00141e-07 0)
(0.0736379 1.58622e-07 0)
(0.0736256 1.35633e-07 0)
(0.0736354 1.01783e-07 0)
(0.0736238 8.7223e-08 0)
(0.0736337 6.08272e-08 0)
(0.0736227 5.358e-08 0)
(0.0736327 3.36411e-08 0)
(0.0736221 3.16056e-08 0)
(0.073632 1.70253e-08 0)
(0.0736219 1.79419e-08 0)
(0.0736316 7.75389e-09 0)
(0.0736217 9.74799e-09 0)
(0.0736314 3.12934e-09 0)
(0.0736217 4.97395e-09 0)
(0.0736313 1.11966e-09 0)
(0.0736217 2.31287e-09 0)
(0.0736312 3.7349e-10 0)
(0.0736218 9.28491e-10 0)
(0.0736311 1.72108e-10 0)
(0.0736218 1.88052e-10 0)
(0.0736311 3.11489e-10 0)
(0.0736218 -3.9278e-10 0)
(0.073631 7.42281e-10 0)
(0.0736219 -1.03345e-09 0)
(0.073631 1.3526e-09 0)
(0.0736219 -1.66283e-09 0)
(0.073631 1.88984e-09 0)
(0.0736219 -2.05319e-09 0)
(0.073631 2.09903e-09 0)
(0.0736219 -2.08813e-09 0)
(0.073631 2.01057e-09 0)
(0.0736219 -1.94476e-09 0)
(0.073631 1.92143e-09 0)
(0.0736219 -1.97393e-09 0)
(0.073631 2.12302e-09 0)
(0.0736219 -2.35991e-09 0)
(0.073631 2.67594e-09 0)
(0.0736219 -3.05089e-09 0)
(0.073631 3.48021e-09 0)
(0.0736219 -3.96612e-09 0)
(0.073631 4.5319e-09 0)
(0.0736218 -5.18205e-09 0)
(0.0736311 5.92165e-09 0)
(0.0736218 -6.67922e-09 0)
(0.0736311 7.38011e-09 0)
(0.0736217 -7.8835e-09 0)
(0.0736312 8.10099e-09 0)
(0.0736216 -8.01418e-09 0)
(0.0736313 7.72207e-09 0)
(0.0736216 -7.38155e-09 0)
(0.0736313 7.14761e-09 0)
(0.0736215 -7.04213e-09 0)
(0.0736314 6.98001e-09 0)
(0.0736215 -6.74344e-09 0)
(0.0736314 6.19023e-09 0)
(0.0736215 -5.25519e-09 0)
(0.0736314 4.03126e-09 0)
(0.0736214 -2.65144e-09 0)
(0.0736314 1.17366e-09 0)
(0.0736215 5.63883e-10 0)
(0.0736314 -2.86688e-09 0)
(0.0736215 5.72809e-09 0)
(0.0736314 -1.04572e-08 0)
(0.0736214 1.40065e-08 0)
(0.0736316 -4.59834e-08 0)
(0.0736214 -7.5555e-09 0)
(0.0736331 -5.34376e-07 0)
(0.0500274 -0.000379345 0)
(0.0544804 -0.000230011 0)
(0.0541036 -0.000162479 0)
(0.0559811 -0.000133514 0)
(0.0562612 -0.000108157 0)
(0.0572104 -9.70949e-05 0)
(0.0576701 -8.77167e-05 0)
(0.0583168 -8.14034e-05 0)
(0.0587904 -7.62438e-05 0)
(0.0593145 -7.19784e-05 0)
(0.059761 -6.84558e-05 0)
(0.0602218 -6.5324e-05 0)
(0.060635 -6.26675e-05 0)
(0.0610555 -6.02211e-05 0)
(0.0614374 -5.80959e-05 0)
(0.0618281 -5.60821e-05 0)
(0.062182 -5.43048e-05 0)
(0.0625486 -5.2572e-05 0)
(0.0628771 -5.10313e-05 0)
(0.0632231 -4.94862e-05 0)
(0.0635283 -4.8112e-05 0)
(0.063856 -4.66964e-05 0)
(0.0641395 -4.54445e-05 0)
(0.0644506 -4.41225e-05 0)
(0.0647138 -4.29652e-05 0)
(0.0650097 -4.17148e-05 0)
(0.0652536 -4.06348e-05 0)
(0.0655356 -3.9443e-05 0)
(0.0657612 -3.84297e-05 0)
(0.0660303 -3.7289e-05 0)
(0.0662384 -3.63355e-05 0)
(0.0664957 -3.52418e-05 0)
(0.0666873 -3.43435e-05 0)
(0.0669334 -3.32949e-05 0)
(0.0671094 -3.24483e-05 0)
(0.0673452 -3.14438e-05 0)
(0.0675064 -3.0646e-05 0)
(0.0677325 -2.96853e-05 0)
(0.0678798 -2.89334e-05 0)
(0.0680968 -2.80166e-05 0)
(0.0682311 -2.73078e-05 0)
(0.0684396 -2.6435e-05 0)
(0.0685617 -2.57664e-05 0)
(0.068762 -2.49376e-05 0)
(0.0688727 -2.43063e-05 0)
(0.0690652 -2.35216e-05 0)
(0.0691655 -2.29244e-05 0)
(0.0693506 -2.21838e-05 0)
(0.0694412 -2.16177e-05 0)
(0.069619 -2.09208e-05 0)
(0.0697008 -2.03829e-05 0)
(0.0698716 -1.97293e-05 0)
(0.0699453 -1.92167e-05 0)
(0.0701093 -1.86059e-05 0)
(0.0701756 -1.81161e-05 0)
(0.070333 -1.75471e-05 0)
(0.0703927 -1.70776e-05 0)
(0.0705435 -1.65494e-05 0)
(0.0705973 -1.60982e-05 0)
(0.0707417 -1.56096e-05 0)
(0.0707902 -1.51749e-05 0)
(0.0709283 -1.47244e-05 0)
(0.0709721 -1.43046e-05 0)
(0.071104 -1.38907e-05 0)
(0.0711436 -1.34843e-05 0)
(0.0712694 -1.31053e-05 0)
(0.0713055 -1.27114e-05 0)
(0.0714252 -1.23654e-05 0)
(0.0714581 -1.19837e-05 0)
(0.071572 -1.16686e-05 0)
(0.0716021 -1.12988e-05 0)
(0.0717104 -1.10116e-05 0)
(0.071738 -1.0654e-05 0)
(0.0718407 -1.03912e-05 0)
(0.0718663 -1.00466e-05 0)
(0.0719636 -9.80479e-06 0)
(0.0719873 -9.47544e-06 0)
(0.0720794 -9.25179e-06 0)
(0.0721015 -8.93987e-06 0)
(0.0721886 -8.73185e-06 0)
(0.0722092 -8.43809e-06 0)
(0.0722917 -8.24304e-06 0)
(0.0723109 -7.9655e-06 0)
(0.072389 -7.78114e-06 0)
(0.072407 -7.51582e-06 0)
(0.0724807 -7.34165e-06 0)
(0.0724976 -7.08456e-06 0)
(0.0725672 -6.92284e-06 0)
(0.0725831 -6.67205e-06 0)
(0.0726487 -6.52729e-06 0)
(0.0726636 -6.28408e-06 0)
(0.0727255 -6.16113e-06 0)
(0.0727396 -5.92967e-06 0)
(0.0727979 -5.83147e-06 0)
(0.0728114 -5.61716e-06 0)
(0.0728664 -5.54265e-06 0)
(0.0728795 -5.34921e-06 0)
(0.0729317 -5.2916e-06 0)
(0.0729444 -5.1173e-06 0)
(0.0729941 -5.06291e-06 0)
(0.0730065 -4.89751e-06 0)
(0.0730539 -4.82596e-06 0)
(0.0730658 -4.65055e-06 0)
(0.073111 -4.53789e-06 0)
(0.0731219 -4.32917e-06 0)
(0.0731645 -4.15433e-06 0)
(0.0731738 -3.89281e-06 0)
(0.0732132 -3.64553e-06 0)
(0.0732201 -3.32432e-06 0)
(0.0732556 -3.01129e-06 0)
(0.0732591 -2.64139e-06 0)
(0.0732901 -2.28697e-06 0)
(0.0732896 -1.89608e-06 0)
(0.0733157 -1.53671e-06 0)
(0.0733111 -1.16172e-06 0)
(0.0733323 -8.35935e-07 0)
(0.0733239 -5.12304e-07 0)
(0.0733407 -2.50681e-07 0)
(0.0733292 -3.00156e-09 0)
(0.0733425 1.78365e-07 0)
(0.0733286 3.41292e-07 0)
(0.0733394 4.41969e-07 0)
(0.0733243 5.26558e-07 0)
(0.0733335 5.58498e-07 0)
(0.073318 5.81645e-07 0)
(0.0733266 5.63697e-07 0)
(0.0733113 5.46431e-07 0)
(0.0733197 4.98816e-07 0)
(0.0733051 4.60852e-07 0)
(0.0733137 4.00998e-07 0)
(0.0733 3.57548e-07 0)
(0.0733089 2.97809e-07 0)
(0.0732962 2.58704e-07 0)
(0.0733053 2.05976e-07 0)
(0.0732934 1.76211e-07 0)
(0.0733028 1.3302e-07 0)
(0.0732917 1.13837e-07 0)
(0.0733012 8.00972e-08 0)
(0.0732906 7.01944e-08 0)
(0.0733001 4.47397e-08 0)
(0.07329 4.15113e-08 0)
(0.0732994 2.2975e-08 0)
(0.0732897 2.35829e-08 0)
(0.073299 1.07182e-08 0)
(0.0732895 1.27952e-08 0)
(0.0732988 4.51367e-09 0)
(0.0732895 6.50668e-09 0)
(0.0732987 1.74389e-09 0)
(0.0732895 3.00795e-09 0)
(0.0732986 6.62181e-10 0)
(0.0732895 1.18793e-09 0)
(0.0732985 3.36584e-10 0)
(0.0732896 2.09671e-10 0)
(0.0732985 4.85762e-10 0)
(0.0732896 -5.51575e-10 0)
(0.0732984 1.02045e-09 0)
(0.0732896 -1.37227e-09 0)
(0.0732984 1.78105e-09 0)
(0.0732896 -2.15953e-09 0)
(0.0732984 2.44088e-09 0)
(0.0732897 -2.63648e-09 0)
(0.0732984 2.6891e-09 0)
(0.0732897 -2.67423e-09 0)
(0.0732984 2.58051e-09 0)
(0.0732897 -2.5068e-09 0)
(0.0732984 2.49043e-09 0)
(0.0732897 -2.57055e-09 0)
(0.0732983 2.77232e-09 0)
(0.0732897 -3.08333e-09 0)
(0.0732984 3.492e-09 0)
(0.0732897 -3.97503e-09 0)
(0.0732984 4.52738e-09 0)
(0.0732897 -5.15303e-09 0)
(0.0732984 5.88035e-09 0)
(0.0732896 -6.71286e-09 0)
(0.0732984 7.65312e-09 0)
(0.0732896 -8.60657e-09 0)
(0.0732985 9.47876e-09 0)
(0.0732895 -1.00964e-08 0)
(0.0732986 1.0358e-08 0)
(0.0732894 -1.02517e-08 0)
(0.0732986 9.90878e-09 0)
(0.0732894 -9.52536e-09 0)
(0.0732987 9.28487e-09 0)
(0.0732893 -9.20352e-09 0)
(0.0732987 9.16928e-09 0)
(0.0732893 -8.91584e-09 0)
(0.0732988 8.28246e-09 0)
(0.0732892 -7.20599e-09 0)
(0.0732988 5.81572e-09 0)
(0.0732892 -4.2861e-09 0)
(0.0732988 2.70882e-09 0)
(0.0732892 -9.2994e-10 0)
(0.0732989 -1.33202e-09 0)
(0.0732892 3.90141e-09 0)
(0.0732989 -8.19222e-09 0)
(0.073289 9.91796e-09 0)
(0.0732992 -4.59558e-08 0)
(0.073289 -2.93655e-08 0)
(0.0733005 -7.32019e-07 0)
(0.0500268 -0.000464855 0)
(0.0544944 -0.000280159 0)
(0.0541157 -0.000199309 0)
(0.0559926 -0.000162739 0)
(0.0562724 -0.000132427 0)
(0.0572216 -0.000118546 0)
(0.0576812 -0.000107288 0)
(0.0583282 -9.94634e-05 0)
(0.0588018 -9.3219e-05 0)
(0.0593263 -8.79709e-05 0)
(0.0597727 -8.36813e-05 0)
(0.0602337 -7.98358e-05 0)
(0.0606464 -7.65844e-05 0)
(0.0610666 -7.35762e-05 0)
(0.0614475 -7.0962e-05 0)
(0.0618372 -6.84773e-05 0)
(0.0621892 -6.62802e-05 0)
(0.0625539 -6.41345e-05 0)
(0.0628795 -6.22219e-05 0)
(0.0632226 -6.03035e-05 0)
(0.0635239 -5.85928e-05 0)
(0.0638476 -5.68332e-05 0)
(0.0641262 -5.52728e-05 0)
(0.0644325 -5.36299e-05 0)
(0.0646898 -5.21877e-05 0)
(0.0649801 -5.06362e-05 0)
(0.0652174 -4.92921e-05 0)
(0.0654931 -4.78168e-05 0)
(0.0657115 -4.65581e-05 0)
(0.0659738 -4.51501e-05 0)
(0.0661743 -4.39686e-05 0)
(0.0664242 -4.26227e-05 0)
(0.066608 -4.15125e-05 0)
(0.0668465 -4.02258e-05 0)
(0.0670145 -3.91822e-05 0)
(0.0672425 -3.79533e-05 0)
(0.0673957 -3.69722e-05 0)
(0.0676139 -3.58001e-05 0)
(0.0677532 -3.48777e-05 0)
(0.0679624 -3.37619e-05 0)
(0.0680888 -3.28943e-05 0)
(0.0682894 -3.18344e-05 0)
(0.0684039 -3.10175e-05 0)
(0.0685964 -3.00133e-05 0)
(0.0686998 -2.92432e-05 0)
(0.0688847 -2.82941e-05 0)
(0.0689779 -2.75669e-05 0)
(0.0691555 -2.66725e-05 0)
(0.0692393 -2.59841e-05 0)
(0.0694099 -2.51438e-05 0)
(0.0694851 -2.44905e-05 0)
(0.0696489 -2.37035e-05 0)
(0.0697164 -2.30817e-05 0)
(0.0698736 -2.23468e-05 0)
(0.0699342 -2.17534e-05 0)
(0.0700849 -2.10695e-05 0)
(0.0701392 -2.05014e-05 0)
(0.0702836 -1.98669e-05 0)
(0.0703323 -1.93215e-05 0)
(0.0704704 -1.87349e-05 0)
(0.0705142 -1.82099e-05 0)
(0.0706463 -1.76694e-05 0)
(0.0706856 -1.71628e-05 0)
(0.0708117 -1.66664e-05 0)
(0.0708473 -1.61764e-05 0)
(0.0709675 -1.5722e-05 0)
(0.0709997 -1.52475e-05 0)
(0.0711141 -1.48327e-05 0)
(0.0711434 -1.43732e-05 0)
(0.0712522 -1.39954e-05 0)
(0.071279 -1.35508e-05 0)
(0.0713823 -1.32063e-05 0)
(0.0714069 -1.27767e-05 0)
(0.0715048 -1.24613e-05 0)
(0.0715275 -1.20477e-05 0)
(0.0716203 -1.17574e-05 0)
(0.0716413 -1.13623e-05 0)
(0.0717291 -1.10936e-05 0)
(0.0717487 -1.07196e-05 0)
(0.0718318 -1.04696e-05 0)
(0.0718501 -1.01175e-05 0)
(0.0719286 -9.8832e-06 0)
(0.0719457 -9.55066e-06 0)
(0.07202 -9.32936e-06 0)
(0.072036 -9.01156e-06 0)
(0.0721062 -8.80263e-06 0)
(0.0721212 -8.49467e-06 0)
(0.0721874 -8.30065e-06 0)
(0.0722016 -8.00015e-06 0)
(0.072264 -7.82616e-06 0)
(0.0722774 -7.53462e-06 0)
(0.0723361 -7.3863e-06 0)
(0.0723488 -7.10877e-06 0)
(0.0724041 -6.98959e-06 0)
(0.0724163 -6.73272e-06 0)
(0.0724684 -6.64162e-06 0)
(0.0724802 -6.41013e-06 0)