/*--------------------------------*- C++ -*----------------------------------*\
| =========                 |                                                 |
| \\      /  F ield         | OpenFOAM: The Open Source CFD Toolbox           |
|  \\    /   O peration     | Version:  2412                                  |
|   \\  /    A nd           | Website:  www.openfoam.com                      |
|    \\/     M anipulation  |                                                 |
\*---------------------------------------------------------------------------*/
FoamFile
{
    version     2.0;
    format      ascii;
    arch        "LSB;label=32;scalar=64";
    class       volScalarField;
    location    "491";
    object      p;
}
// * * * * * * * * * * * * * * * * * * * * * * * * * * * * * * * * * * * * * //

dimensions      [0 2 -2 0 0 0 0];

internalField   nonuniform List<scalar> 
8000
(
0.00307855
0.00284392
0.00286571
0.00276175
0.00274651
0.00269294
0.00266663
0.0026297
0.0026019
0.00257168
0.00254492
0.00251811
0.00249285
0.00246817
0.00244431
0.00242116
0.00239852
0.00237657
0.00235497
0.00233399
0.00231327
0.00229313
0.00227317
0.00225374
0.00223445
0.00221564
0.00219694
0.00217868
0.0021605
0.00214273
0.00212503
0.00210769
0.00209041
0.00207346
0.00205658
0.00203999
0.00202346
0.00200719
0.001991
0.00197502
0.00195913
0.00194343
0.00192783
0.00191237
0.00189703
0.00188181
0.00186671
0.00185171
0.00183684
0.00182204
0.00180738
0.00179276
0.00177831
0.00176387
0.0017496
0.00173533
0.00172123
0.00170711
0.00169319
0.00167922
0.00166544
0.00165161
0.00163798
0.00162428
0.00161078
0.00159721
0.00158384
0.00157039
0.00155714
0.0015438
0.00153066
0.00151743
0.00150439
0.00149127
0.00147833
0.00146531
0.00145245
0.00143953
0.00142676
0.00141392
0.00140124
0.00138848
0.00137588
0.0013632
0.00135067
0.00133807
0.0013256
0.00131308
0.00130068
0.00128823
0.00127588
0.0012635
0.00125121
0.00123889
0.00122666
0.0012144
0.00120221
0.00119001
0.00117787
0.00116572
0.00115362
0.00114151
0.00112945
0.00111739
0.00110537
0.00109334
0.00108137
0.00106939
0.00105746
0.00104554
0.00103367
0.00102181
0.00101001
0.000998219
0.000986489
0.000974774
0.000963115
0.00095147
0.000939876
0.000928289
0.000916747
0.000905206
0.000893701
0.000882189
0.000870705
0.000859208
0.000847732
0.000836239
0.000824762
0.000813265
0.000801782
0.000790276
0.000778784
0.000767268
0.000755767
0.000744242
0.000732732
0.0007212
0.000709683
0.000698146
0.000686624
0.000675082
0.000663557
0.000652013
0.000640485
0.000628939
0.000617409
0.000605862
0.000594332
0.000582785
0.000571254
0.000559706
0.000548175
0.000536627
0.000525096
0.000513548
0.000502017
0.000490469
0.000478938
0.00046739
0.000455858
0.00044431
0.000432779
0.000421231
0.0004097
0.000398151
0.00038662
0.000375071
0.000363541
0.000351992
0.000340462
0.000328912
0.000317382
0.000305832
0.000294303
0.000282752
0.000271224
0.000259672
0.000248144
0.000236593
0.000225064
0.000213513
0.000201984
0.000190435
0.000178903
0.000167356
0.000155822
0.000144277
0.000132742
0.000121196
0.000109663
9.81157e-05
8.65836e-05
7.50362e-05
6.35026e-05
5.19572e-05
4.042e-05
2.88777e-05
1.73092e-05
5.77699e-06
0.00307864
0.00284391
0.00286566
0.00276175
0.0027465
0.00269293
0.00266662
0.0026297
0.0026019
0.00257168
0.00254492
0.00251811
0.00249285
0.00246817
0.00244431
0.00242116
0.00239852
0.00237657
0.00235497
0.00233399
0.00231327
0.00229313
0.00227317
0.00225374
0.00223445
0.00221564
0.00219694
0.00217868
0.0021605
0.00214273
0.00212503
0.00210769
0.00209041
0.00207346
0.00205658
0.00203999
0.00202346
0.00200719
0.001991
0.00197502
0.00195913
0.00194343
0.00192783
0.00191237
0.00189703
0.00188181
0.00186671
0.00185171
0.00183684
0.00182204
0.00180738
0.00179276
0.00177831
0.00176387
0.0017496
0.00173533
0.00172123
0.00170711
0.00169319
0.00167922
0.00166544
0.00165161
0.00163798
0.00162428
0.00161078
0.00159721
0.00158384
0.00157039
0.00155714
0.0015438
0.00153066
0.00151743
0.00150439
0.00149127
0.00147833
0.00146531
0.00145245
0.00143953
0.00142676
0.00141392
0.00140124
0.00138848
0.00137587
0.0013632
0.00135067
0.00133807
0.0013256
0.00131308
0.00130068
0.00128823
0.00127588
0.0012635
0.00125121
0.00123889
0.00122666
0.0012144
0.00120221
0.00119001
0.00117787
0.00116572
0.00115362
0.00114151
0.00112945
0.00111739
0.00110537
0.00109334
0.00108137
0.00106939
0.00105746
0.00104554
0.00103367
0.00102181
0.00101001
0.000998219
0.000986489
0.000974774
0.000963115
0.00095147
0.000939876
0.000928289
0.000916747
0.000905206
0.000893701
0.000882189
0.000870705
0.000859208
0.000847732
0.000836239
0.000824762
0.000813265
0.000801782
0.000790276
0.000778784
0.000767269
0.000755767
0.000744242
0.000732732
0.0007212
0.000709683
0.000698146
0.000686624
0.000675082
0.000663557
0.000652013
0.000640485
0.000628939
0.000617409
0.000605862
0.000594332
0.000582785
0.000571254
0.000559706
0.000548175
0.000536627
0.000525096
0.000513548
0.000502017
0.000490469
0.000478938
0.00046739
0.000455858
0.00044431
0.000432779
0.000421231
0.0004097
0.000398151
0.00038662
0.000375071
0.000363541
0.000351992
0.000340462
0.000328912
0.000317382
0.000305832
0.000294303
0.000282752
0.000271224
0.000259672
0.000248144
0.000236593
0.000225064
0.000213513
0.000201984
0.000190435
0.000178903
0.000167356
0.000155822
0.000144277
0.000132742
0.000121196
0.000109663
9.81157e-05
8.65836e-05
7.50362e-05
6.35026e-05
5.19572e-05
4.042e-05
2.88778e-05
1.73091e-05
5.77687e-06
0.00307885
0.00284382
0.00286562
0.00276173
0.00274648
0.00269293
0.00266662
0.00262969
0.0026019
0.00257167
0.00254492
0.00251811
0.00249285
0.00246816
0.00244431
0.00242116
0.00239852
0.00237657
0.00235496
0.00233399
0.00231327
0.00229313
0.00227317
0.00225374
0.00223445
0.00221564
0.00219694
0.00217868
0.0021605
0.00214273
0.00212502
0.00210768
0.00209041
0.00207346
0.00205658
0.00203999
0.00202346
0.00200719
0.001991
0.00197502
0.00195913
0.00194343
0.00192783
0.00191237
0.00189703
0.00188181
0.00186671
0.00185171
0.00183684
0.00182203
0.00180738
0.00179276
0.00177831
0.00176387
0.0017496
0.00173533
0.00172123
0.00170711
0.00169319
0.00167922
0.00166544
0.00165161
0.00163798
0.00162428
0.00161078
0.00159721
0.00158384
0.00157039
0.00155714
0.0015438
0.00153066
0.00151743
0.00150439
0.00149127
0.00147833
0.00146531
0.00145245
0.00143953
0.00142676
0.00141392
0.00140124
0.00138848
0.00137587
0.0013632
0.00135067
0.00133807
0.0013256
0.00131308
0.00130068
0.00128823
0.00127588
0.0012635
0.00125121
0.00123889
0.00122666
0.0012144
0.00120221
0.00119001
0.00117787
0.00116572
0.00115362
0.00114151
0.00112945
0.00111739
0.00110537
0.00109334
0.00108137
0.00106939
0.00105746
0.00104554
0.00103367
0.00102181
0.00101001
0.000998219
0.000986488
0.000974773
0.000963115
0.000951469
0.000939875
0.000928289
0.000916747
0.000905206
0.000893701
0.000882189
0.000870705
0.000859208
0.000847732
0.000836239
0.000824762
0.000813265
0.000801782
0.000790276
0.000778784
0.000767269
0.000755767
0.000744242
0.000732732
0.0007212
0.000709683
0.000698146
0.000686624
0.000675082
0.000663557
0.000652013
0.000640485
0.000628939
0.000617409
0.000605862
0.000594332
0.000582785
0.000571254
0.000559706
0.000548175
0.000536627
0.000525096
0.000513548
0.000502017
0.000490469
0.000478938
0.00046739
0.000455858
0.00044431
0.000432779
0.000421231
0.0004097
0.000398151
0.00038662
0.000375071
0.000363541
0.000351992
0.000340462
0.000328912
0.000317382
0.000305832
0.000294303
0.000282752
0.000271224
0.000259672
0.000248144
0.000236593
0.000225064
0.000213513
0.000201984
0.000190435
0.000178903
0.000167356
0.000155822
0.000144277
0.000132742
0.000121196
0.000109663
9.81157e-05
8.65836e-05
7.50362e-05
6.35026e-05
5.19572e-05
4.042e-05
2.88778e-05
1.73093e-05
5.77707e-06
0.00307917
0.00284368
0.00286556
0.00276169
0.00274645
0.00269291
0.0026666
0.00262969
0.00260189
0.00257167
0.00254491
0.0025181
0.00249284
0.00246816
0.00244431
0.00242116
0.00239852
0.00237656
0.00235496
0.00233399
0.00231327
0.00229313
0.00227317
0.00225374
0.00223445
0.00221564
0.00219694
0.00217868
0.0021605
0.00214273
0.00212502
0.00210768
0.00209041
0.00207346
0.00205658
0.00203999
0.00202346
0.00200719
0.001991
0.00197502
0.00195913
0.00194343
0.00192783
0.00191237
0.00189703
0.00188181
0.00186671
0.00185171
0.00183684
0.00182203
0.00180738
0.00179276
0.00177831
0.00176387
0.0017496
0.00173533
0.00172123
0.00170711
0.00169319
0.00167921
0.00166544
0.00165161
0.00163798
0.00162428
0.00161078
0.00159721
0.00158384
0.00157039
0.00155714
0.0015438
0.00153066
0.00151743
0.00150439
0.00149127
0.00147833
0.0014653
0.00145245
0.00143953
0.00142676
0.00141392
0.00140124
0.00138848
0.00137587
0.0013632
0.00135067
0.00133807
0.0013256
0.00131308
0.00130068
0.00128823
0.00127588
0.0012635
0.00125121
0.00123889
0.00122666
0.0012144
0.00120221
0.00119001
0.00117787
0.00116572
0.00115362
0.00114151
0.00112945
0.00111739
0.00110537
0.00109334
0.00108137
0.00106939
0.00105746
0.00104554
0.00103367
0.00102181
0.00101001
0.000998218
0.000986488
0.000974773
0.000963115
0.000951469
0.000939875
0.000928289
0.000916747
0.000905206
0.0008937
0.000882188
0.000870705
0.000859208
0.000847732
0.000836239
0.000824762
0.000813265
0.000801782
0.000790276
0.000778784
0.000767269
0.000755767
0.000744242
0.000732732
0.0007212
0.000709683
0.000698146
0.000686624
0.000675082
0.000663557
0.000652013
0.000640485
0.000628939
0.000617409
0.000605862
0.000594332
0.000582785
0.000571254
0.000559706
0.000548175
0.000536627
0.000525096
0.000513548
0.000502017
0.000490469
0.000478938
0.00046739
0.000455858
0.00044431
0.000432779
0.000421231
0.0004097
0.000398151
0.00038662
0.000375071
0.000363541
0.000351992
0.000340462
0.000328912
0.000317382
0.000305832
0.000294303
0.000282752
0.000271224
0.000259672
0.000248144
0.000236593
0.000225064
0.000213513
0.000201984
0.000190435
0.000178903
0.000167356
0.000155822
0.000144277
0.000132742
0.000121196
0.000109663
9.81157e-05
8.65836e-05
7.50362e-05
6.35026e-05
5.19572e-05
4.04201e-05
2.88778e-05
1.73098e-05
5.77758e-06
0.00307959
0.0028435
0.00286547
0.00276165
0.00274642
0.00269289
0.00266659
0.00262968
0.00260188
0.00257166
0.00254491
0.0025181
0.00249284
0.00246815
0.0024443
0.00242115
0.00239852
0.00237656
0.00235496
0.00233399
0.00231327
0.00229312
0.00227317
0.00225374
0.00223445
0.00221564
0.00219694
0.00217868
0.0021605
0.00214272
0.00212502
0.00210768
0.00209041
0.00207346
0.00205658
0.00203998
0.00202346
0.00200719
0.001991
0.00197502
0.00195913
0.00194343
0.00192782
0.00191237
0.00189703
0.00188181
0.00186671
0.00185171
0.00183684
0.00182203
0.00180738
0.00179276
0.00177831
0.00176387
0.0017496
0.00173532
0.00172123
0.00170711
0.00169318
0.00167921
0.00166544
0.00165161
0.00163798
0.00162428
0.00161078
0.00159721
0.00158384
0.00157039
0.00155713
0.0015438
0.00153066
0.00151743
0.00150439
0.00149127
0.00147833
0.0014653
0.00145245
0.00143953
0.00142676
0.00141392
0.00140124
0.00138848
0.00137587
0.0013632
0.00135067
0.00133807
0.0013256
0.00131308
0.00130068
0.00128823
0.00127588
0.0012635
0.00125121
0.00123889
0.00122666
0.0012144
0.00120221
0.00119001
0.00117787
0.00116572
0.00115362
0.00114151
0.00112945
0.00111739
0.00110537
0.00109334
0.00108137
0.00106939
0.00105746
0.00104554
0.00103367
0.00102181
0.00101001
0.000998218
0.000986488
0.000974773
0.000963114
0.000951469
0.000939875
0.000928289
0.000916747
0.000905206
0.0008937
0.000882188
0.000870705
0.000859208
0.000847732
0.000836239
0.000824763
0.000813265
0.000801782
0.000790276
0.000778784
0.000767269
0.000755767
0.000744243
0.000732732
0.0007212
0.000709683
0.000698146
0.000686624
0.000675082
0.000663557
0.000652013
0.000640485
0.000628939
0.000617409
0.000605862
0.000594332
0.000582785
0.000571254
0.000559706
0.000548175
0.000536627
0.000525096
0.000513548
0.000502017
0.000490469
0.000478938
0.00046739
0.000455858
0.00044431
0.000432779
0.000421231
0.0004097
0.000398151
0.00038662
0.000375071
0.000363541
0.000351992
0.000340462
0.000328912
0.000317382
0.000305832
0.000294303
0.000282752
0.000271224
0.000259672
0.000248144
0.000236593
0.000225064
0.000213513
0.000201984
0.000190435
0.000178903
0.000167356
0.000155822
0.000144277
0.000132742
0.000121196
0.000109663
9.81157e-05
8.65836e-05
7.50362e-05
6.35026e-05
5.19572e-05
4.04201e-05
2.88778e-05
1.73105e-05
5.77834e-06
0.00308011
0.00284327
0.00286537
0.00276158
0.00274638
0.00269287
0.00266657
0.00262966
0.00260187
0.00257165
0.0025449
0.00251809
0.00249283
0.00246815
0.0024443
0.00242115
0.00239851
0.00237656
0.00235496
0.00233398
0.00231326
0.00229312
0.00227316
0.00225373
0.00223444
0.00221564
0.00219693
0.00217867
0.0021605
0.00214272
0.00212502
0.00210768
0.00209041
0.00207346
0.00205658
0.00203998
0.00202346
0.00200719
0.00199099
0.00197502
0.00195913
0.00194343
0.00192782
0.00191237
0.00189703
0.00188181
0.00186671
0.00185171
0.00183684
0.00182203
0.00180738
0.00179276
0.00177831
0.00176387
0.0017496
0.00173532
0.00172123
0.00170711
0.00169318
0.00167921
0.00166544
0.00165161
0.00163798
0.00162428
0.00161078
0.00159721
0.00158384
0.00157039
0.00155713
0.0015438
0.00153066
0.00151743
0.00150439
0.00149127
0.00147833
0.0014653
0.00145245
0.00143952
0.00142676
0.00141392
0.00140124
0.00138848
0.00137587
0.0013632
0.00135067
0.00133807
0.0013256
0.00131308
0.00130067
0.00128823
0.00127588
0.0012635
0.00125121
0.00123889
0.00122666
0.0012144
0.00120221
0.00119001
0.00117787
0.00116572
0.00115362
0.00114151
0.00112945
0.00111739
0.00110537
0.00109334
0.00108137
0.00106939
0.00105746
0.00104554
0.00103367
0.00102181
0.00101001
0.000998218
0.000986488
0.000974773
0.000963114
0.000951469
0.000939875
0.000928289
0.000916747
0.000905205
0.0008937
0.000882188
0.000870705
0.000859208
0.000847732
0.000836239
0.000824763
0.000813265
0.000801782
0.000790276
0.000778784
0.000767269
0.000755767
0.000744243
0.000732732
0.000721201
0.000709683
0.000698146
0.000686624
0.000675082
0.000663557
0.000652013
0.000640485
0.000628939
0.000617409
0.000605862
0.000594332
0.000582785
0.000571254
0.000559706
0.000548175
0.000536627
0.000525096
0.000513548
0.000502017
0.000490469
0.000478938
0.00046739
0.000455858
0.00044431
0.000432779
0.000421231
0.0004097
0.000398151
0.00038662
0.000375071
0.000363541
0.000351992
0.000340462
0.000328912
0.000317382
0.000305832
0.000294303
0.000282752
0.000271224
0.000259672
0.000248144
0.000236593
0.000225064
0.000213513
0.000201984
0.000190435
0.000178903
0.000167356
0.000155822
0.000144277
0.000132742
0.000121196
0.000109663
9.81157e-05
8.65836e-05
7.50362e-05
6.35026e-05
5.19572e-05
4.04202e-05
2.88778e-05
1.73114e-05
5.77933e-06
0.00308074
0.002843
0.00286525
0.00276151
0.00274633
0.00269284
0.00266655
0.00262964
0.00260185
0.00257164
0.00254489
0.00251808
0.00249282
0.00246814
0.00244429
0.00242114
0.00239851
0.00237655
0.00235495
0.00233398
0.00231326
0.00229312
0.00227316
0.00225373
0.00223444
0.00221563
0.00219693
0.00217867
0.0021605
0.00214272
0.00212502
0.00210768
0.0020904
0.00207346
0.00205657
0.00203998
0.00202346
0.00200719
0.00199099
0.00197502
0.00195913
0.00194343
0.00192782
0.00191237
0.00189703
0.00188181
0.00186671
0.00185171
0.00183684
0.00182203
0.00180738
0.00179276
0.00177831
0.00176387
0.0017496
0.00173532
0.00172123
0.00170711
0.00169318
0.00167921
0.00166544
0.00165161
0.00163798
0.00162428
0.00161078
0.00159721
0.00158384
0.00157039
0.00155713
0.0015438
0.00153066
0.00151743
0.00150439
0.00149127
0.00147832
0.0014653
0.00145245
0.00143952
0.00142676
0.00141392
0.00140124
0.00138848
0.00137587
0.0013632
0.00135067
0.00133807
0.0013256
0.00131308
0.00130067
0.00128823
0.00127588
0.0012635
0.00125121
0.00123889
0.00122665
0.0012144
0.00120221
0.00119001
0.00117787
0.00116572
0.00115362
0.00114151
0.00112945
0.00111739
0.00110537
0.00109334
0.00108137
0.00106939
0.00105746
0.00104554
0.00103367
0.00102181
0.00101001
0.000998218
0.000986487
0.000974772
0.000963114
0.000951468
0.000939875
0.000928288
0.000916746
0.000905205
0.0008937
0.000882188
0.000870705
0.000859208
0.000847732
0.000836239
0.000824763
0.000813265
0.000801782
0.000790276
0.000778784
0.000767269
0.000755767
0.000744243
0.000732732
0.000721201
0.000709683
0.000698146
0.000686624
0.000675082
0.000663557
0.000652013
0.000640485
0.000628939
0.000617409
0.000605862
0.000594332
0.000582785
0.000571254
0.000559706
0.000548175
0.000536627
0.000525096
0.000513548
0.000502017
0.000490469
0.000478938
0.00046739
0.000455858
0.00044431
0.000432779
0.000421231
0.0004097
0.000398151
0.00038662
0.000375071
0.000363541
0.000351992
0.000340462
0.000328912
0.000317382
0.000305832
0.000294303
0.000282752
0.000271224
0.000259672
0.000248144
0.000236593
0.000225064
0.000213513
0.000201984
0.000190435
0.000178903
0.000167356
0.000155822
0.000144277
0.000132742
0.000121196
0.000109663
9.81157e-05
8.65836e-05
7.50362e-05
6.35026e-05
5.19572e-05
4.04202e-05
2.88779e-05
1.73126e-05
5.78054e-06
0.00308148
0.00284268
0.0028651
0.00276143
0.00274627
0.00269281
0.00266652
0.00262962
0.00260184
0.00257162
0.00254488
0.00251807
0.00249281
0.00246813
0.00244428
0.00242113
0.0023985
0.00237655
0.00235495
0.00233397
0.00231326
0.00229311
0.00227316
0.00225373
0.00223444
0.00221563
0.00219693
0.00217867
0.00216049
0.00214272
0.00212502
0.00210768
0.0020904
0.00207346
0.00205657
0.00203998
0.00202345
0.00200719
0.00199099
0.00197502
0.00195913
0.00194343
0.00192782
0.00191237
0.00189703
0.00188181
0.00186671
0.0018517
0.00183684
0.00182203
0.00180738
0.00179276
0.00177831
0.00176386
0.0017496
0.00173532
0.00172123
0.00170711
0.00169318
0.00167921
0.00166544
0.00165161
0.00163797
0.00162428
0.00161078
0.00159721
0.00158384
0.00157039
0.00155713
0.0015438
0.00153065
0.00151743
0.00150439
0.00149127
0.00147832
0.0014653
0.00145245
0.00143952
0.00142676
0.00141392
0.00140123
0.00138848
0.00137587
0.0013632
0.00135067
0.00133807
0.0013256
0.00131308
0.00130067
0.00128823
0.00127588
0.0012635
0.00125121
0.00123889
0.00122665
0.0012144
0.00120221
0.00119001
0.00117787
0.00116572
0.00115362
0.00114151
0.00112945
0.00111739
0.00110537
0.00109334
0.00108137
0.00106939
0.00105746
0.00104554
0.00103367
0.00102181
0.00101001
0.000998217
0.000986487
0.000974772
0.000963114
0.000951468
0.000939874
0.000928288
0.000916746
0.000905205
0.0008937
0.000882188
0.000870705
0.000859208
0.000847732
0.000836239
0.000824763
0.000813265
0.000801782
0.000790276
0.000778784
0.000767269
0.000755767
0.000744243
0.000732732
0.000721201
0.000709683
0.000698146
0.000686624
0.000675082
0.000663557
0.000652013
0.000640485
0.000628939
0.000617409
0.000605862
0.000594332
0.000582785
0.000571254
0.000559706
0.000548175
0.000536627
0.000525096
0.000513548
0.000502017
0.000490469
0.000478938
0.00046739
0.000455858
0.00044431
0.000432779
0.000421231
0.0004097
0.000398151
0.00038662
0.000375071
0.000363541
0.000351992
0.000340462
0.000328912
0.000317382
0.000305832
0.000294303
0.000282752
0.000271224
0.000259672
0.000248144
0.000236593
0.000225064
0.000213513
0.000201984
0.000190435
0.000178903
0.000167356
0.000155822
0.000144277
0.000132742
0.000121196
0.000109663
9.81157e-05
8.65836e-05
7.50362e-05
6.35026e-05
5.19572e-05
4.04203e-05
2.88779e-05
1.7314e-05
5.78193e-06
0.00308232
0.00284232
0.00286494
0.00276133
0.00274621
0.00269277
0.00266649
0.0026296
0.00260182
0.00257161
0.00254486
0.00251806
0.0024928
0.00246812
0.00244427
0.00242113
0.00239849
0.00237654
0.00235494
0.00233397
0.00231325
0.00229311
0.00227315
0.00225372
0.00223443
0.00221563
0.00219693
0.00217866
0.00216049
0.00214271
0.00212501
0.00210767
0.0020904
0.00207345
0.00205657
0.00203998
0.00202345
0.00200718
0.00199099
0.00197502
0.00195913
0.00194343
0.00192782
0.00191237
0.00189702
0.0018818
0.00186671
0.0018517
0.00183683
0.00182203
0.00180738
0.00179276
0.0017783
0.00176386
0.0017496
0.00173532
0.00172123
0.00170711
0.00169318
0.00167921
0.00166544
0.00165161
0.00163797
0.00162428
0.00161078
0.00159721
0.00158384
0.00157039
0.00155713
0.0015438
0.00153065
0.00151743
0.00150439
0.00149127
0.00147832
0.0014653
0.00145245
0.00143952
0.00142676
0.00141392
0.00140123
0.00138848
0.00137587
0.0013632
0.00135066
0.00133807
0.0013256
0.00131308
0.00130067
0.00128823
0.00127588
0.0012635
0.00125121
0.00123889
0.00122665
0.0012144
0.00120221
0.00119001
0.00117787
0.00116572
0.00115362
0.00114151
0.00112945
0.00111739
0.00110537
0.00109334
0.00108137
0.00106939
0.00105746
0.00104554
0.00103367
0.00102181
0.00101001
0.000998217
0.000986487
0.000974772
0.000963113
0.000951468
0.000939874
0.000928288
0.000916746
0.000905205
0.0008937
0.000882188
0.000870704
0.000859207
0.000847732
0.000836239
0.000824763
0.000813265
0.000801782
0.000790276
0.000778784
0.000767269
0.000755767
0.000744243
0.000732732
0.000721201
0.000709683
0.000698146
0.000686624
0.000675082
0.000663557
0.000652013
0.000640485
0.000628939
0.000617409
0.000605862
0.000594332
0.000582785
0.000571254
0.000559706
0.000548175
0.000536627
0.000525096
0.000513548
0.000502017
0.000490469
0.000478938
0.00046739
0.000455858
0.00044431
0.000432779
0.000421231
0.0004097
0.000398151
0.00038662
0.000375071
0.000363541
0.000351992
0.000340462
0.000328912
0.000317382
0.000305832
0.000294303
0.000282752
0.000271224
0.000259672
0.000248144
0.000236593
0.000225064
0.000213513
0.000201984
0.000190435
0.000178903
0.000167356
0.000155822
0.000144277
0.000132742
0.000121196
0.000109663
9.81157e-05
8.65836e-05
7.50362e-05
6.35026e-05
5.19572e-05
4.04204e-05
2.88779e-05
1.73155e-05
5.78349e-06
0.00308326
0.0028419
0.00286475
0.00276122
0.00274614
0.00269272
0.00266646
0.00262958
0.0026018
0.00257159
0.00254485
0.00251804
0.00249279
0.00246811
0.00244426
0.00242112
0.00239848
0.00237653
0.00235493
0.00233396
0.00231324
0.0022931
0.00227315
0.00225372
0.00223443
0.00221562
0.00219692
0.00217866
0.00216049
0.00214271
0.00212501
0.00210767
0.0020904
0.00207345
0.00205657
0.00203998
0.00202345
0.00200718
0.00199099
0.00197501
0.00195913
0.00194342
0.00192782
0.00191237
0.00189702
0.0018818
0.00186671
0.0018517
0.00183683
0.00182203
0.00180737
0.00179276
0.0017783
0.00176386
0.0017496
0.00173532
0.00172123
0.00170711
0.00169318
0.00167921
0.00166544
0.00165161
0.00163797
0.00162428
0.00161078
0.00159721
0.00158384
0.00157039
0.00155713
0.0015438
0.00153065
0.00151743
0.00150439
0.00149127
0.00147832
0.0014653
0.00145245
0.00143952
0.00142676
0.00141392
0.00140123
0.00138848
0.00137587
0.0013632
0.00135066
0.00133807
0.0013256
0.00131308
0.00130067
0.00128823
0.00127588
0.0012635
0.00125121
0.00123889
0.00122665
0.0012144
0.00120221
0.00119001
0.00117787
0.00116572
0.00115362
0.00114151
0.00112945
0.00111739
0.00110537
0.00109334
0.00108137
0.00106939
0.00105746
0.00104554
0.00103367
0.00102181
0.00101
0.000998216
0.000986486
0.000974771
0.000963113
0.000951467
0.000939874
0.000928288
0.000916746
0.000905205
0.0008937
0.000882188
0.000870704
0.000859207
0.000847732
0.000836239
0.000824763
0.000813265
0.000801782
0.000790276
0.000778784
0.000767269
0.000755767
0.000744243
0.000732732
0.000721201
0.000709683
0.000698146
0.000686624
0.000675082
0.000663557
0.000652013
0.000640485
0.000628939
0.000617409
0.000605862
0.000594332
0.000582785
0.000571254
0.000559706
0.000548175
0.000536627
0.000525096
0.000513548
0.000502017
0.000490469
0.000478938
0.00046739
0.000455858
0.00044431
0.000432779
0.000421231
0.0004097
0.000398151
0.00038662
0.000375071
0.000363541
0.000351992
0.000340462
0.000328912
0.000317382
0.000305832
0.000294303
0.000282752
0.000271224
0.000259672
0.000248144
0.000236593
0.000225064
0.000213513
0.000201984
0.000190435
0.000178903
0.000167356
0.000155822
0.000144277
0.000132742
0.000121197
0.000109663
9.81157e-05
8.65836e-05
7.50362e-05
6.35026e-05
5.19572e-05
4.04204e-05
2.8878e-05
1.73171e-05
5.78518e-06
0.00308431
0.00284144
0.00286454
0.0027611
0.00274606
0.00269267
0.00266642
0.00262955
0.00260178
0.00257157
0.00254483
0.00251803
0.00249278
0.0024681
0.00244425
0.00242111
0.00239847
0.00237652
0.00235492
0.00233395
0.00231324
0.0022931
0.00227314
0.00225371
0.00223442
0.00221562
0.00219692
0.00217866
0.00216048
0.00214271
0.00212501
0.00210767
0.00209039
0.00207345
0.00205656
0.00203997
0.00202345
0.00200718
0.00199099
0.00197501
0.00195912
0.00194342
0.00192782
0.00191236
0.00189702
0.0018818
0.0018667
0.0018517
0.00183683
0.00182203
0.00180737
0.00179276
0.0017783
0.00176386
0.00174959
0.00173532
0.00172123
0.00170711
0.00169318
0.00167921
0.00166543
0.0016516
0.00163797
0.00162428
0.00161078
0.00159721
0.00158384
0.00157039
0.00155713
0.0015438
0.00153065
0.00151743
0.00150439
0.00149127
0.00147832
0.0014653
0.00145245
0.00143952
0.00142676
0.00141392
0.00140123
0.00138848
0.00137587
0.0013632
0.00135066
0.00133807
0.0013256
0.00131308
0.00130067
0.00128823
0.00127588
0.0012635
0.00125121
0.00123889
0.00122665
0.0012144
0.00120221
0.00119001
0.00117787
0.00116572
0.00115362
0.00114151
0.00112945
0.00111739
0.00110537
0.00109334
0.00108137
0.00106939
0.00105746
0.00104554
0.00103367
0.00102181
0.00101
0.000998216
0.000986486
0.000974771
0.000963112
0.000951467
0.000939873
0.000928287
0.000916746
0.000905205
0.0008937
0.000882188
0.000870704
0.000859207
0.000847732
0.000836239
0.000824763
0.000813265
0.000801782
0.000790276
0.000778784
0.000767269
0.000755767
0.000744243
0.000732732
0.000721201
0.000709683
0.000698146
0.000686624
0.000675082
0.000663557
0.000652013
0.000640485
0.000628939
0.000617409
0.000605862
0.000594332
0.000582785
0.000571254
0.000559706
0.000548175
0.000536627
0.000525096
0.000513548
0.000502017
0.000490469
0.000478938
0.00046739
0.000455858
0.00044431
0.000432779
0.000421231
0.0004097
0.000398151
0.00038662
0.000375071
0.000363541
0.000351992
0.000340462
0.000328912
0.000317382
0.000305832
0.000294303
0.000282752
0.000271224
0.000259672
0.000248144
0.000236593
0.000225064
0.000213513
0.000201984
0.000190435
0.000178903
0.000167356
0.000155822
0.000144277
0.000132742
0.000121197
0.000109663
9.81156e-05
8.65836e-05
7.50362e-05
6.35026e-05
5.19572e-05
4.04205e-05
2.8878e-05
1.73188e-05
5.78698e-06
0.00308547
0.00284093
0.00286431
0.00276096
0.00274597
0.00269262
0.00266638
0.00262952
0.00260175
0.00257155
0.00254481
0.00251801
0.00249276
0.00246809
0.00244424
0.0024211
0.00239847
0.00237652
0.00235492
0.00233395
0.00231323
0.00229309
0.00227314
0.00225371
0.00223442
0.00221561
0.00219691
0.00217865
0.00216048
0.0021427
0.002125
0.00210766
0.00209039
0.00207344
0.00205656
0.00203997
0.00202345
0.00200718
0.00199098
0.00197501
0.00195912
0.00194342
0.00192781
0.00191236
0.00189702
0.0018818
0.0018667
0.0018517
0.00183683
0.00182203
0.00180737
0.00179276
0.0017783
0.00176386
0.00174959
0.00173532
0.00172123
0.00170711
0.00169318
0.00167921
0.00166543
0.0016516
0.00163797
0.00162428
0.00161078
0.00159721
0.00158383
0.00157039
0.00155713
0.0015438
0.00153065
0.00151743
0.00150439
0.00149127
0.00147832
0.0014653
0.00145245
0.00143952
0.00142676
0.00141392
0.00140123
0.00138848
0.00137587
0.0013632
0.00135066
0.00133807
0.0013256
0.00131308
0.00130067
0.00128823
0.00127588
0.0012635
0.00125121
0.00123889
0.00122665
0.0012144
0.00120221
0.00119001
0.00117787
0.00116572
0.00115362
0.00114151
0.00112945
0.00111739
0.00110537
0.00109334
0.00108136
0.00106939
0.00105746
0.00104554
0.00103367
0.00102181
0.00101
0.000998216
0.000986485
0.00097477
0.000963112
0.000951467
0.000939873
0.000928287
0.000916745
0.000905204
0.000893699
0.000882188
0.000870704
0.000859207
0.000847732
0.000836239
0.000824763
0.000813265
0.000801782
0.000790276
0.000778784
0.000767269
0.000755767
0.000744243
0.000732732
0.000721201
0.000709683
0.000698146
0.000686624
0.000675082
0.000663557
0.000652013
0.000640485
0.000628939
0.000617409
0.000605862
0.000594332
0.000582785
0.000571254
0.000559706
0.000548175
0.000536627
0.000525096
0.000513548
0.000502017
0.000490469
0.000478938
0.00046739
0.000455858
0.00044431
0.000432779
0.000421231
0.0004097
0.000398151
0.00038662
0.000375071
0.000363541
0.000351992
0.000340462
0.000328912
0.000317382
0.000305832
0.000294303
0.000282752
0.000271224
0.000259672
0.000248144
0.000236593
0.000225064
0.000213513
0.000201984
0.000190435
0.000178903
0.000167356
0.000155822
0.000144277
0.000132742
0.000121197
0.000109663
9.81156e-05
8.65836e-05
7.50362e-05
6.35026e-05
5.19572e-05
4.04206e-05
2.88781e-05
1.73206e-05
5.78886e-06
0.00308674
0.00284038
0.00286406
0.00276081
0.00274587
0.00269256
0.00266634
0.00262948
0.00260172
0.00257152
0.00254479
0.00251799
0.00249275
0.00246807
0.00244423
0.00242108
0.00239845
0.00237651
0.00235491
0.00233394
0.00231322
0.00229308
0.00227313
0.0022537
0.00223441
0.00221561
0.00219691
0.00217865
0.00216047
0.0021427
0.002125
0.00210766
0.00209039
0.00207344
0.00205656
0.00203997
0.00202344
0.00200717
0.00199098
0.00197501
0.00195912
0.00194342
0.00192781
0.00191236
0.00189702
0.0018818
0.0018667
0.0018517
0.00183683
0.00182202
0.00180737
0.00179275
0.0017783
0.00176386
0.00174959
0.00173532
0.00172123
0.00170711
0.00169318
0.00167921
0.00166543
0.0016516
0.00163797
0.00162427
0.00161078
0.00159721
0.00158383
0.00157039
0.00155713
0.0015438
0.00153065
0.00151743
0.00150439
0.00149127
0.00147832
0.0014653
0.00145245
0.00143952
0.00142676
0.00141392
0.00140123
0.00138848
0.00137587
0.0013632
0.00135066
0.00133807
0.0013256
0.00131308
0.00130067
0.00128823
0.00127588
0.0012635
0.00125121
0.00123889
0.00122665
0.0012144
0.00120221
0.00119001
0.00117787
0.00116572
0.00115362
0.00114151
0.00112945
0.00111739
0.00110537
0.00109334
0.00108136
0.00106939
0.00105746
0.00104554
0.00103367
0.00102181
0.00101
0.000998215
0.000986485
0.00097477
0.000963112
0.000951466
0.000939873
0.000928287
0.000916745
0.000905204
0.000893699
0.000882188
0.000870704
0.000859207
0.000847732
0.000836239
0.000824763
0.000813265
0.000801782
0.000790277
0.000778784
0.000767269
0.000755767
0.000744243
0.000732732
0.000721201
0.000709684
0.000698146
0.000686624
0.000675082
0.000663557
0.000652013
0.000640485
0.000628939
0.000617409
0.000605862
0.000594332
0.000582785
0.000571254
0.000559706
0.000548175
0.000536627
0.000525096
0.000513548
0.000502017
0.000490469
0.000478938
0.00046739
0.000455858
0.00044431
0.000432779
0.000421231
0.0004097
0.000398151
0.00038662
0.000375071
0.000363541
0.000351992