/*--------------------------------*- C++ -*----------------------------------*\
| =========                 |                                                 |
| \\      /  F ield         | OpenFOAM: The Open Source CFD Toolbox           |
|  \\    /   O peration     | Version:  2412                                  |
|   \\  /    A nd           | Website:  www.openfoam.com                      |
|    \\/     M anipulation  |                                                 |
\*---------------------------------------------------------------------------*/
FoamFile
{
    version     2.0;
    format      ascii;
    arch        "LSB;label=32;scalar=64";
    class       surfaceScalarField;
    location    "491";
    object      phi;
}
// * * * * * * * * * * * * * * * * * * * * * * * * * * * * * * * * * * * * * //

dimensions      [0 3 -1 0 0 0 0];

oriented        oriented;

internalField   nonuniform List<scalar> 
15760
(
1.31109e-08
-6.10937e-10
1.3527e-08
-4.16015e-10
1.37776e-08
-2.50662e-10
1.40115e-08
-2.33868e-10
1.41854e-08
-1.73874e-10
1.43505e-08
-1.65191e-10
1.44948e-08
-1.44298e-10
1.46315e-08
-1.36656e-10
1.4758e-08
-1.2649e-10
1.48782e-08
-1.20233e-10
1.49921e-08
-1.13915e-10
1.51011e-08
-1.08937e-10
1.52055e-08
-1.04427e-10
1.53059e-08
-1.0041e-10
1.54028e-08
-9.69205e-11
1.54964e-08
-9.35759e-11
1.55871e-08
-9.07252e-11
1.5675e-08
-8.7839e-11
1.57604e-08
-8.54113e-11
1.58432e-08
-8.28363e-11
1.59239e-08
-8.06988e-11
1.60023e-08
-7.83371e-11
1.60787e-08
-7.64057e-11
1.61529e-08
-7.41947e-11
1.62253e-08
-7.24156e-11
1.62956e-08
-7.0317e-11
1.63642e-08
-6.86563e-11
1.64309e-08
-6.6648e-11
1.6496e-08
-6.50844e-11
1.65591e-08
-6.31547e-11
1.66208e-08
-6.16746e-11
1.66806e-08
-5.98185e-11
1.6739e-08
-5.84129e-11
1.67957e-08
-5.66291e-11
1.6851e-08
-5.52918e-11
1.69045e-08
-5.35812e-11
1.69568e-08
-5.23071e-11
1.70075e-08
-5.06716e-11
1.7057e-08
-4.94562e-11
1.71049e-08
-4.7898e-11
1.71516e-08
-4.67371e-11
1.71969e-08
-4.52581e-11
1.7241e-08
-4.41477e-11
1.72838e-08
-4.27494e-11
1.73255e-08
-4.16854e-11
1.73658e-08
-4.03686e-11
1.74052e-08
-3.93472e-11
1.74433e-08
-3.81122e-11
1.74804e-08
-3.71298e-11
1.75164e-08
-3.5976e-11
1.75514e-08
-3.50291e-11
1.75854e-08
-3.39554e-11
1.76184e-08
-3.3041e-11
1.76505e-08
-3.20457e-11
1.76816e-08
-3.11612e-11
1.77119e-08
-3.02419e-11
1.77412e-08
-2.9385e-11
1.77698e-08
-2.8539e-11
1.77975e-08
-2.77077e-11
1.78244e-08
-2.6932e-11
1.78505e-08
-2.61248e-11
1.7876e-08
-2.54158e-11
1.79006e-08
-2.46317e-11
1.79246e-08
-2.39854e-11
1.79478e-08
-2.32239e-11
1.79704e-08
-2.2636e-11
1.79923e-08
-2.18972e-11
1.80137e-08
-2.13629e-11
1.80343e-08
-2.06475e-11
1.80545e-08
-2.01615e-11
1.8074e-08
-1.94711e-11
1.8093e-08
-1.90277e-11
1.81114e-08
-1.83637e-11
1.81293e-08
-1.79572e-11
1.81467e-08
-1.7321e-11
1.81636e-08
-1.69464e-11
1.81799e-08
-1.63392e-11
1.81959e-08
-1.59926e-11
1.82113e-08
-1.54148e-11
1.82264e-08
-1.50942e-11
1.8241e-08
-1.45449e-11
1.82552e-08
-1.42489e-11
1.8269e-08
-1.37254e-11
1.82824e-08
-1.34526e-11
1.82954e-08
-1.2951e-11
1.83081e-08
-1.26994e-11
1.83203e-08
-1.22161e-11
1.83323e-08
-1.19841e-11
1.83438e-08
-1.15184e-11
1.83551e-08
-1.13049e-11
1.83659e-08
-1.08603e-11
1.83766e-08
-1.06656e-11
1.83869e-08
-1.02492e-11
1.83969e-08
-1.00744e-11
1.84066e-08
-9.69441e-12
1.84162e-08
-9.53967e-12
1.84254e-08
-9.20172e-12
1.84344e-08
-9.06371e-12
1.84432e-08
-8.76528e-12
1.84518e-08
-8.63341e-12
1.84602e-08
-8.35977e-12
1.84684e-08
-8.21307e-12
1.84763e-08
-7.93526e-12
1.84841e-08
-7.74293e-12
1.84915e-08
-7.42285e-12
1.84987e-08
-7.15099e-12
1.85054e-08
-6.75193e-12
1.85118e-08
-6.37578e-12
1.85177e-08
-5.8779e-12
1.85231e-08
-5.39473e-12
1.85279e-08
-4.80594e-12
1.85321e-08
-4.24193e-12
1.85357e-08
-3.60053e-12
1.85387e-08
-3.00681e-12
1.85411e-08
-2.37112e-12
1.85429e-08
-1.81016e-12
1.85441e-08
-1.24191e-12
1.85449e-08
-7.69832e-13
1.85452e-08
-3.16087e-13
1.85452e-08
3.14034e-14
1.85448e-08
3.48134e-13
1.85443e-08
5.61568e-13
1.85435e-08
7.45024e-13
1.85427e-08
8.38109e-13
1.85418e-08
9.11026e-13
1.85409e-08
9.12229e-13
1.854e-08
9.06957e-13
1.85391e-08
8.49579e-13
1.85383e-08
7.98699e-13
1.85376e-08
7.13005e-13
1.8537e-08
6.43487e-13
1.85364e-08
5.52185e-13
1.85359e-08
4.8252e-13
1.85355e-08
3.99758e-13
1.85352e-08
3.40275e-13
1.85349e-08
2.72766e-13
1.85347e-08
2.27306e-13
1.85345e-08
1.76491e-13
1.85344e-08
1.44729e-13
1.85343e-08
1.08928e-13
1.85342e-08
8.83868e-14
1.85341e-08
6.46344e-14
1.85341e-08
5.2257e-14
1.8534e-08
3.74415e-14
1.8534e-08
3.03557e-14
1.8534e-08
2.18155e-14
1.85339e-08
1.76599e-14
1.85339e-08
1.3423e-14
1.85339e-08
1.06413e-14
1.85339e-08
9.34912e-15
1.85339e-08
6.83005e-15
1.85339e-08
7.63803e-15
1.85339e-08
4.80827e-15
1.85339e-08
7.20254e-15
1.85339e-08
3.61155e-15
1.85339e-08
7.32585e-15
1.85339e-08
2.87986e-15
1.85339e-08
7.7526e-15
1.85339e-08
2.24262e-15
1.85339e-08
8.21926e-15
1.85339e-08
1.70968e-15
1.85338e-08
8.74639e-15
1.85338e-08
1.12282e-15
1.85338e-08
9.22348e-15
1.85338e-08
6.07188e-16
1.85338e-08
9.73501e-15
1.85338e-08
-2.29585e-18
1.85338e-08
1.01303e-14
1.85338e-08
-5.70337e-16
1.85338e-08
1.04856e-14
1.85338e-08
-1.10761e-15
1.85338e-08
1.07381e-14
1.85338e-08
-1.51297e-15
1.85338e-08
1.08821e-14
1.85338e-08
-1.7541e-15
1.85338e-08
1.08811e-14
1.85338e-08
-1.75717e-15
1.85338e-08
9.90288e-15
1.85338e-08
-3.18499e-16
1.85338e-08
7.48185e-15
1.85338e-08
3.04654e-15
1.85338e-08
2.3029e-15
1.85337e-08
9.47773e-15
1.85337e-08
-5.52909e-15
1.85337e-08
1.68827e-14
1.85337e-08
-1.10896e-14
1.85337e-08
1.75788e-14
1.85337e-08
-5.76661e-15
1.85337e-08
5.91484e-15
1.85337e-08
8.05588e-15
1.85337e-08
-4.40264e-15
1.85337e-08
7.78829e-15
1.85337e-08
7.76145e-15
1.85337e-08
-1.28785e-14
1.85337e-08
2.87966e-14
1.85337e-08
-3.72087e-14
1.85337e-08
6.55236e-14
1.85338e-08
-1.77422e-13
1.85336e-08
2.73617e-13
-7.34165e-13
1.31373e-08
-1.24825e-09
1.35107e-08
-7.89413e-10
1.37873e-08
-5.27222e-10
1.40066e-08
-4.53181e-10
1.41887e-08
-3.5594e-10
1.43495e-08
-3.26043e-10
1.44962e-08
-2.91014e-10
1.46316e-08
-2.7202e-10
1.47588e-08
-2.53711e-10
1.48787e-08
-2.40087e-10
1.49928e-08
-2.2805e-10
1.51016e-08
-2.17772e-10
1.52061e-08
-2.08905e-10
1.53065e-08
-2.00794e-10
1.54034e-08
-1.93819e-10
1.54969e-08
-1.87128e-10
1.55876e-08
-1.81378e-10
1.56754e-08
-1.75627e-10
1.57607e-08
-1.70702e-10
1.58434e-08
-1.65579e-10
1.59239e-08
-1.61227e-10
1.60021e-08
-1.56533e-10
1.60783e-08
-1.5259e-10
1.61523e-08
-1.482e-10
1.62245e-08
-1.44564e-10
1.62946e-08
-1.40399e-10
1.63629e-08
-1.37004e-10
1.64293e-08
-1.33022e-10
1.6494e-08
-1.29826e-10
1.65569e-08
-1.26002e-10
1.66182e-08
-1.2298e-10
1.66777e-08
-1.19303e-10
1.67357e-08
-1.16437e-10
1.6792e-08
-1.12904e-10
1.68468e-08
-1.10182e-10
1.69001e-08
-1.06794e-10
1.6952e-08
-1.04206e-10
1.70023e-08
-1.00966e-10
1.70513e-08
-9.85037e-11
1.70988e-08
-9.54139e-11
1.71451e-08
-9.30692e-11
1.719e-08
-9.01334e-11
1.72338e-08
-8.78975e-11
1.72761e-08
-8.51184e-11
1.73174e-08
-8.29831e-11
1.73574e-08
-8.03618e-11
1.73964e-08
-7.8319e-11
1.74341e-08
-7.5856e-11
1.74709e-08
-7.38979e-11
1.75065e-08
-7.15921e-11
1.75412e-08
-6.97115e-11
1.75748e-08
-6.75607e-11
1.76075e-08
-6.57511e-11
1.76392e-08
-6.3752e-11
1.76701e-08
-6.20073e-11
1.77e-08
-6.01558e-11
1.77291e-08
-5.84707e-11
1.77573e-08
-5.67619e-11
1.77847e-08
-5.51319e-11
1.78114e-08
-5.35599e-11
1.78372e-08
-5.19814e-11
1.78623e-08
-5.05398e-11
1.78867e-08
-4.901e-11
1.79104e-08
-4.76915e-11
1.79334e-08
-4.62086e-11
1.79558e-08
-4.5005e-11
1.79774e-08
-4.35687e-11
1.79986e-08
-4.24709e-11
1.8019e-08
-4.10823e-11
1.80389e-08
-4.00802e-11
1.80582e-08
-3.87414e-11
1.8077e-08
-3.78242e-11
1.80951e-08
-3.65381e-11
1.81129e-08
-3.56948e-11
1.813e-08
-3.44637e-11
1.81468e-08
-3.36844e-11
1.81629e-08
-3.251e-11
1.81787e-08
-3.17877e-11
1.8194e-08
-3.06705e-11
1.82089e-08
-3.00013e-11
1.82233e-08
-2.89391e-11
1.82374e-08
-2.83209e-11
1.82509e-08
-2.73082e-11
1.82642e-08
-2.67385e-11
1.8277e-08
-2.57672e-11
1.82896e-08
-2.52425e-11
1.83017e-08
-2.43053e-11
1.83135e-08
-2.38218e-11
1.83249e-08
-2.29173e-11
1.83361e-08
-2.24725e-11
1.83468e-08
-2.1607e-11
1.83574e-08
-2.1201e-11
1.83675e-08
-2.03886e-11
1.83775e-08
-2.0023e-11
1.8387e-08
-1.92804e-11
1.83965e-08
-1.89557e-11
1.84055e-08
-1.82949e-11
1.84145e-08
-1.80055e-11
1.84231e-08
-1.74231e-11
1.84317e-08
-1.71497e-11
1.84399e-08
-1.66187e-11
1.8448e-08
-1.63216e-11
1.84559e-08
-1.57868e-11
1.84635e-08
-1.54065e-11
1.84709e-08
-1.47932e-11
1.8478e-08
-1.42622e-11
1.84848e-08
-1.34967e-11
1.84912e-08
-1.27631e-11
1.84971e-08
-1.18027e-11
1.85025e-08
-1.08566e-11
1.85075e-08
-9.71201e-12
1.85118e-08
-8.6e-12
1.85156e-08
-7.34279e-12
1.85187e-08
-6.16243e-12
1.85212e-08
-4.9057e-12
1.85232e-08
-3.77976e-12
1.85246e-08
-2.64646e-12
1.85255e-08
-1.68806e-12
1.8526e-08
-7.74571e-13
1.85261e-08
-5.84082e-14
1.85258e-08
5.86315e-13
1.85254e-08
1.03709e-12
1.85247e-08
1.41637e-12
1.85239e-08
1.62543e-12
1.8523e-08
1.78149e-12
1.85222e-08
1.80329e-12
1.85213e-08
1.79907e-12
1.85204e-08
1.69921e-12
1.85196e-08
1.5995e-12
1.85189e-08
1.43872e-12
1.85182e-08
1.29806e-12
1.85177e-08
1.12268e-12
1.85172e-08
9.79102e-13
1.85167e-08
8.18532e-13
1.85164e-08
6.93787e-13
1.85161e-08
5.62486e-13
1.85159e-08
4.65136e-13
1.85157e-08
3.66749e-13
1.85155e-08
2.96746e-13
1.85154e-08
2.28381e-13
1.85153e-08
1.81088e-13
1.85152e-08
1.37039e-13
1.85152e-08
1.0647e-13
1.85151e-08
8.05757e-14
1.85151e-08
6.09797e-14
1.85151e-08
4.78877e-14
1.85151e-08
3.44703e-14
1.8515e-08
3.01712e-14
1.8515e-08
1.97478e-14
1.8515e-08
2.14592e-14
1.8515e-08
1.17285e-14
1.8515e-08
1.77094e-14
1.8515e-08
7.47708e-15
1.8515e-08
1.66628e-14
1.8515e-08
4.9769e-15
1.8515e-08
1.68136e-14
1.8515e-08
3.47178e-15
1.8515e-08
1.76268e-14
1.8515e-08
2.17617e-15
1.8515e-08
1.85398e-14
1.8515e-08
1.10528e-15
1.8515e-08
1.95997e-14
1.8515e-08
-8.31748e-17
1.85149e-08
2.05716e-14
1.8515e-08
-1.13274e-15
1.85149e-08
2.16433e-14
1.85149e-08
-2.4017e-15
1.85149e-08
2.24988e-14
1.85149e-08
-3.61371e-15
1.85149e-08
2.33112e-14
1.85149e-08
-4.79888e-15
1.85149e-08
2.3947e-14
1.85149e-08
-5.74216e-15
1.85149e-08
2.43858e-14
1.85149e-08
-6.35122e-15
1.85149e-08
2.45023e-14
1.85149e-08
-6.41624e-15
1.85149e-08
2.25328e-14
1.85149e-08
-3.43229e-15
1.85149e-08
1.74989e-14
1.85149e-08
3.62679e-15
1.85149e-08
6.72785e-15
1.85149e-08
1.6876e-14
1.85149e-08
-9.08661e-15
1.85149e-08
3.13843e-14
1.85149e-08
-1.92827e-14
1.85148e-08
3.13112e-14
1.85148e-08
-7.02604e-15
1.85148e-08
6.93531e-15
1.85148e-08
2.05009e-14
1.85148e-08
-1.23694e-14
1.85148e-08
1.84247e-14
1.85148e-08
1.20631e-14
1.85148e-08
-2.01861e-14
1.85148e-08
4.84771e-14
1.85148e-08
-5.99775e-14
1.85148e-08
1.04705e-13
1.85149e-08
-2.83807e-13
1.85149e-08
2.4075e-13
-1.89243e-12
1.31379e-08
-1.88615e-09
1.35118e-08
-1.16328e-09
1.37883e-08
-8.03788e-10
1.40076e-08
-6.725e-10
1.41897e-08
-5.38025e-10
1.43506e-08
-4.86906e-10
1.44973e-08
-4.37749e-10
1.46327e-08
-4.07398e-10
1.476e-08
-3.80952e-10
1.48798e-08
-3.59956e-10
1.4994e-08
-3.42202e-10
1.51028e-08
-3.26613e-10
1.52073e-08
-3.1338e-10
1.53076e-08
-3.01152e-10
1.54045e-08
-2.90671e-10
1.5498e-08
-2.80599e-10
1.55885e-08
-2.71915e-10
1.56761e-08
-2.63255e-10
1.57612e-08
-2.55789e-10
1.58437e-08
-2.48069e-10
1.59239e-08
-2.41453e-10
1.60018e-08
-2.34378e-10
1.60776e-08
-2.28375e-10
1.61511e-08
-2.21759e-10
1.62228e-08
-2.16218e-10
1.62923e-08
-2.09948e-10
1.63601e-08
-2.04775e-10
1.64259e-08
-1.98786e-10
1.649e-08
-1.93921e-10
1.65521e-08
-1.88178e-10
1.66127e-08
-1.83583e-10
1.66715e-08
-1.78069e-10
1.67288e-08
-1.73718e-10
1.67843e-08
-1.68427e-10
1.68384e-08
-1.64301e-10
1.68909e-08
-1.59234e-10
1.6942e-08
-1.55318e-10
1.69915e-08
-1.50476e-10
1.70397e-08
-1.46756e-10
1.70865e-08
-1.42145e-10
1.7132e-08
-1.38608e-10
1.71761e-08
-1.3423e-10
1.72191e-08
-1.30863e-10
1.72607e-08
-1.26721e-10
1.73012e-08
-1.23511e-10
1.73405e-08
-1.19606e-10
1.73787e-08
-1.1654e-10
1.74157e-08
-1.12871e-10
1.74517e-08
-1.09938e-10
1.74866e-08
-1.06503e-10
1.75206e-08
-1.0369e-10
1.75535e-08
-1.00485e-10
1.75856e-08
-9.77839e-11
1.76166e-08
-9.48041e-11
1.76468e-08
-9.22037e-11
1.76761e-08
-8.94424e-11
1.77046e-08
-8.69349e-11
1.77322e-08
-8.43846e-11
1.7759e-08
-8.19628e-11
1.77851e-08
-7.96148e-11
1.78104e-08
-7.72728e-11
1.78349e-08
-7.51176e-11
1.78588e-08
-7.28506e-11
1.7882e-08
-7.08774e-11
1.79045e-08
-6.86828e-11
1.79263e-08
-6.68794e-11
1.79475e-08
-6.4756e-11
1.79682e-08
-6.3109e-11
1.79881e-08
-6.10582e-11
1.80076e-08
-5.95527e-11
1.80264e-08
-5.75775e-11
1.80448e-08
-5.61976e-11
1.80626e-08
-5.43018e-11
1.80799e-08
-5.30313e-11
1.80967e-08
-5.12178e-11
1.8113e-08
-5.00425e-11
1.81288e-08
-4.83136e-11
1.81443e-08
-4.72233e-11
1.81592e-08
-4.5579e-11
1.81737e-08
-4.45681e-11
1.81878e-08
-4.30051e-11
1.82016e-08
-4.2071e-11
1.82148e-08
-4.05807e-11
1.82278e-08
-3.972e-11
1.82403e-08
-3.82908e-11
1.82526e-08
-3.74982e-11
1.82644e-08
-3.61192e-11
1.8276e-08
-3.53886e-11
1.82871e-08
-3.40572e-11
1.8298e-08
-3.33844e-11
1.83085e-08
-3.21096e-11
1.83188e-08
-3.14939e-11
1.83287e-08
-3.02963e-11
1.83384e-08
-2.97398e-11
1.83478e-08
-2.86442e-11
1.8357e-08
-2.81483e-11
1.83659e-08
-2.7173e-11
1.83746e-08
-2.67309e-11
1.8383e-08
-2.58729e-11
1.83914e-08
-2.54584e-11
1.83994e-08
-2.46801e-11
1.84073e-08
-2.42376e-11
1.8415e-08
-2.34599e-11
1.84225e-08
-2.29032e-11
1.84297e-08
-2.20169e-11
1.84367e-08
-2.1246e-11
1.84434e-08
-2.01405e-11
1.84497e-08
-1.90755e-11
1.84555e-08
-1.76832e-11
1.8461e-08
-1.63032e-11
1.84659e-08
-1.46336e-11
1.84703e-08
-1.30007e-11
1.84741e-08
-1.11537e-11
1.84774e-08
-9.40706e-12
1.848e-08
-7.54651e-12
1.84821e-08
-5.86611e-12
1.84836e-08
-4.17445e-12
1.84847e-08
-2.73005e-12
1.84852e-08
-1.35384e-12
1.84854e-08
-2.61124e-13
1.84853e-08
7.2138e-13
1.84849e-08
1.42223e-12
1.84843e-08
2.01035e-12
1.84836e-08
2.34944e-12
1.84828e-08
2.60165e-12
1.84819e-08
2.65676e-12
1.84811e-08
2.66443e-12
1.84802e-08
2.53193e-12
1.84794e-08
2.39111e-12
1.84787e-08
2.16176e-12
1.84781e-08
1.95459e-12
1.84775e-08
1.69869e-12
1.8477e-08
1.48333e-12
1.84766e-08
1.24631e-12
1.84762e-08
1.05672e-12
1.84759e-08
8.61598e-13
1.84757e-08
7.11831e-13
1.84755e-08
5.6512e-13
1.84753e-08
4.55978e-13
1.84752e-08
3.54047e-13
1.84751e-08
2.79103e-13
1.8475e-08
2.13779e-13
1.84749e-08
1.64293e-13
1.84749e-08
1.26488e-13
1.84749e-08
9.38924e-14
1.84748e-08
7.55826e-14
1.84748e-08
5.26407e-14
1.84748e-08
4.77533e-14
1.84748e-08
2.96127e-14
1.84748e-08
3.38998e-14
1.84748e-08
1.7022e-14
1.84748e-08
2.78071e-14
1.84748e-08
1.03382e-14
1.84747e-08
2.59742e-14
1.84747e-08
6.43019e-15
1.84747e-08
2.60551e-14
1.84747e-08
4.10606e-15
1.84747e-08
2.7202e-14
1.84747e-08
2.13818e-15
1.84747e-08
2.85315e-14
1.84747e-08
5.34556e-16
1.84747e-08
3.01052e-14
1.84747e-08
-1.24026e-15
1.84747e-08
3.15551e-14
1.84747e-08
-2.79963e-15
1.84747e-08
3.31683e-14
1.84747e-08
-4.69939e-15
1.84747e-08
3.44633e-14
1.84747e-08
-6.52421e-15
1.84747e-08
3.57145e-14
1.84747e-08
-8.33046e-15
1.84747e-08
3.67237e-14
1.84747e-08
-9.79577e-15
1.84746e-08
3.74568e-14
1.84747e-08
-1.07597e-14
1.84746e-08
3.77304e-14
1.84746e-08
-1.09267e-14
1.84746e-08
3.47296e-14
1.84746e-08
-6.32215e-15
1.84746e-08
2.70568e-14
1.84746e-08
4.43001e-15
1.84746e-08
1.0809e-14
1.84746e-08
2.41733e-14
1.84746e-08
-1.23036e-14
1.84746e-08
4.46692e-14
1.84746e-08
-2.56062e-14
1.84746e-08
4.21599e-14
1.84746e-08
-5.06205e-15
1.84746e-08
4.57435e-15
1.84746e-08
3.56339e-14
1.84746e-08
-2.26017e-14
1.84746e-08
3.13218e-14
1.84746e-08
1.24073e-14
1.84746e-08
-2.05095e-14
1.84746e-08
5.64049e-14
1.84746e-08
-6.38814e-14
1.84746e-08
1.10813e-13
1.84746e-08
-3.26788e-13
1.84747e-08
1.0998e-13
-3.26157e-12
1.3139e-08
-2.52512e-09
1.35135e-08
-1.53782e-09
1.379e-08
-1.08029e-09
1.40093e-08
-8.91778e-10
1.41914e-08
-7.20114e-10
1.43523e-08
-6.47775e-10
1.4499e-08
-5.84507e-10
1.46344e-08
-5.42797e-10
1.47617e-08
-5.08221e-10
1.48816e-08
-4.79847e-10
1.49957e-08
-4.56374e-10
1.51046e-08
-4.35457e-10
1.5209e-08
-4.17839e-10
1.53093e-08
-4.0146e-10
1.54061e-08
-3.87433e-10
1.54994e-08
-3.73927e-10
1.55898e-08
-3.62252e-10
1.56771e-08
-3.50615e-10
1.57619e-08
-3.40539e-10
1.5844e-08
-3.30149e-10
1.59237e-08
-3.21195e-10
1.6001e-08
-3.11664e-10
1.60761e-08
-3.03527e-10
1.6149e-08
-2.94616e-10
1.62199e-08
-2.87103e-10
1.62886e-08
-2.78668e-10
1.63555e-08
-2.71657e-10
1.64203e-08
-2.63613e-10
1.64834e-08
-2.57027e-10
1.65446e-08
-2.49329e-10
1.66041e-08
-2.43118e-10
1.66618e-08
-2.35743e-10
1.67179e-08
-2.29873e-10
1.67723e-08
-2.22812e-10
1.68253e-08
-2.17256e-10
1.68766e-08
-2.10507e-10
1.69265e-08
-2.05244e-10
1.69748e-08
-1.98807e-10
1.70219e-08
-1.93818e-10
1.70674e-08
-1.87697e-10
1.71118e-08
-1.82962e-10
1.71547e-08
-1.77159e-10
1.71965e-08
-1.72659e-10
1.7237e-08
-1.67176e-10
1.72763e-08
-1.62893e-10
1.73145e-08
-1.57728e-10
1.73516e-08
-1.53645e-10
1.73875e-08
-1.48797e-10
1.74224e-08
-1.44896e-10
1.74563e-08
-1.4036e-10
1.74892e-08
-1.36625e-10
1.75212e-08
-1.32395e-10
1.75522e-08
-1.28812e-10
1.75823e-08
-1.24881e-10
1.76115e-08
-1.21437e-10
1.76398e-08
-1.17795e-10
1.76674e-08
-1.14478e-10
1.76941e-08
-1.11115e-10
1.77201e-08
-1.07915e-10
1.77453e-08
-1.04818e-10
1.77697e-08
-1.01727e-10
1.77935e-08
-9.88838e-11
1.78165e-08
-9.58953e-11
1.7839e-08
-9.32912e-11
1.78607e-08
-9.04011e-11
1.78818e-08
-8.80199e-11
1.79023e-08
-8.52263e-11
1.79222e-08
-8.30502e-11
1.79415e-08
-8.03547e-11
1.79603e-08
-7.83641e-11
1.79785e-08
-7.57702e-11
1.79963e-08
-7.39442e-11
1.80134e-08
-7.14566e-11
1.80302e-08
-6.97741e-11
1.80463e-08
-6.73962e-11
1.80621e-08
-6.58387e-11
1.80774e-08
-6.35729e-11
1.80923e-08
-6.21271e-11
1.81067e-08
-5.99728e-11
1.81208e-08
-5.86319e-11
1.81343e-08
-5.65846e-11
1.81476e-08
-5.53451e-11
1.81604e-08
-5.33936e-11
1.8173e-08
-5.22515e-11
1.8185e-08
-5.03805e-11
1.81969e-08
-4.93289e-11
1.82083e-08
-4.7524e-11
1.82194e-08
-4.65543e-11
1.82302e-08
-4.4812e-11
1.82407e-08
-4.39178e-11
1.82509e-08
-4.22493e-11
1.82608e-08
-4.14287e-11
1.82704e-08
-3.98606e-11
1.82798e-08
-3.91164e-11
1.82888e-08
-3.76809e-11
1.82977e-08
-3.70155e-11
1.83062e-08
-3.57377e-11
1.83146e-08
-3.51441e-11
1.83228e-08
-3.40214e-11
1.83308e-08
-3.34684e-11
1.83386e-08
-3.24547e-11
1.83462e-08
-3.18728e-11
1.83536e-08
-3.0867e-11
1.83609e-08
-3.0146e-11
1.83678e-08
-2.90069e-11
1.83746e-08
-2.80157e-11
1.83811e-08
-2.65968e-11
1.83872e-08
-2.52271e-11
1.8393e-08
-2.34347e-11
1.83983e-08
-2.16521e-11
1.84032e-08
-1.94915e-11
1.84075e-08
-1.73693e-11
1.84114e-08
-1.49638e-11
1.84146e-08
-1.26777e-11
1.84173e-08
-1.02379e-11
1.84195e-08
-8.02158e-12
1.84211e-08
-5.78654e-12
1.84222e-08
-3.86489e-12
1.84229e-08
-2.03106e-12
1.84232e-08
-5.61566e-13
1.84232e-08
7.6173e-13
1.84229e-08
1.71935e-12
1.84223e-08
2.52445e-12
1.84217e-08
3.00367e-12
1.84209e-08
3.36223e-12
1.84201e-08
3.46131e-12
1.84193e-08
3.49068e-12
1.84185e-08
3.33485e-12
1.84177e-08
3.16088e-12
1.8417e-08
2.86997e-12
1.84164e-08
2.60191e-12
1.84158e-08
2.27003e-12
1.84153e-08
1.98631e-12
1.84149e-08
1.67529e-12
1.84145e-08
1.42258e-12
1.84142e-08
1.16456e-12
1.8414e-08
9.62973e-13
1.84137e-08
7.67918e-13
1.84136e-08
6.19631e-13
1.84135e-08
4.83618e-13
1.84134e-08
3.80784e-13
1.84133e-08
2.93475e-13
1.84132e-08
2.24833e-13
1.84132e-08
1.74379e-13
1.84131e-08
1.28656e-13
1.84131e-08
1.04439e-13
1.84131e-08
7.1991e-14
1.84131e-08
6.58895e-14
1.84131e-08
4.01903e-14
1.8413e-08
4.64785e-14
1.8413e-08
2.27304e-14
1.8413e-08
3.77756e-14
1.8413e-08
1.34395e-14
1.8413e-08
3.49927e-14
1.8413e-08
8.03059e-15
1.8413e-08
3.49069e-14
1.8413e-08
4.84428e-15
1.8413e-08
3.63314e-14
1.8413e-08
2.19079e-15
1.8413e-08
3.80447e-14
1.8413e-08
5.75634e-17
1.8413e-08
4.01113e-14
1.8413e-08
-2.29014e-15
1.8413e-08
4.20226e-14
1.8413e-08
-4.3393e-15
1.8413e-08
4.41614e-14
1.8413e-08
-6.84474e-15
1.84129e-08
4.58798e-14
1.84129e-08
-9.25605e-15
1.84129e-08
4.75569e-14
1.84129e-08
-1.16613e-14
1.84129e-08
4.89347e-14
1.84129e-08
-1.36372e-14
1.84129e-08
4.99701e-14
1.84129e-08
-1.49619e-14
1.84129e-08
5.03979e-14
1.84129e-08
-1.52141e-14
1.84129e-08
4.64235e-14
1.84129e-08
-9.04919e-15
1.84129e-08
3.61873e-14
1.84129e-08
5.25972e-15
1.84129e-08
1.47562e-14
1.84129e-08
3.0978e-14
1.84129e-08
-1.47978e-14
1.84129e-08
5.62672e-14
1.84129e-08
-2.97569e-14
1.84129e-08
4.99242e-14
1.84129e-08
4.27344e-17
1.84129e-08
-1.05284e-15
1.84129e-08
5.33859e-14
1.84129e-08
-3.5488e-14
1.84129e-08
4.72975e-14
1.84129e-08
7.56379e-15
1.84129e-08
-1.27548e-14
1.84129e-08
5.20304e-14
1.84128e-08
-5.02187e-14
1.84129e-08
9.14776e-14
1.84129e-08
-3.36479e-13
1.8413e-08
-2.63343e-14
-4.70452e-12
1.31405e-08
-3.1656e-09
1.3516e-08
-1.91329e-09
1.37923e-08
-1.35667e-09
1.40115e-08
-1.11098e-09
1.41936e-08
-9.02187e-10
1.43545e-08
-8.08645e-10
1.45013e-08
-7.3129e-10
1.46367e-08
-6.78222e-10
1.4764e-08
-6.35525e-10
1.48839e-08
-5.99766e-10
1.49981e-08
-5.70566e-10
1.51069e-08
-5.44293e-10
1.52114e-08
-5.22258e-10
1.53116e-08
-5.01673e-10
1.54082e-08
-4.84039e-10
1.55013e-08
-4.67021e-10
1.55913e-08
-4.52273e-10
1.56782e-08
-4.37566e-10
1.57625e-08
-4.24784e-10
1.5844e-08
-4.11623e-10
1.5923e-08
-4.0023e-10
1.59995e-08
-3.88146e-10
1.60737e-08
-3.77777e-10
1.61456e-08
-3.66482e-10
1.62154e-08
-3.56907e-10
1.6283e-08
-3.46231e-10
1.63486e-08
-3.37305e-10
1.64121e-08
-3.27145e-10
1.64739e-08
-3.18775e-10
1.65336e-08
-3.09077e-10
1.65917e-08
-3.012e-10
1.66479e-08
-2.91934e-10
1.67025e-08
-2.84507e-10
1.67554e-08
-2.75659e-10
1.68068e-08
-2.68647e-10
1.68565e-08
-2.60211e-10
1.69048e-08
-2.53585e-10
1.69516e-08
-2.45559e-10
1.6997e-08
-2.39291e-10
1.7041e-08
-2.31676e-10
1.70838e-08
-2.2574e-10
1.71252e-08
-2.18534e-10
1.71654e-08
-2.12905e-10
1.72044e-08
-2.06107e-10
1.72422e-08
-2.00759e-10
1.72789e-08
-1.94366e-10
1.73145e-08
-1.89276e-10
1.7349e-08
-1.83283e-10
1.73825e-08
-1.78427e-10
1.7415e-08
-1.72826e-10
1.74465e-08
-1.68185e-10
1.74771e-08
-1.62967e-10
1.75068e-08
-1.5852e-10
1.75356e-08
-1.53674e-10
1.75636e-08
-1.49405e-10
1.75907e-08
-1.44919e-10
1.7617e-08
-1.40812e-10
1.76426e-08
-1.3667e-10
1.76674e-08
-1.32714e-10
1.76915e-08
-1.28901e-10
1.77148e-08
-1.25084e-10
1.77375e-08
-1.21584e-10
1.77595e-08
-1.17896e-10
1.77809e-08
-1.14691e-10
1.78017e-08
-1.11129e-10
1.78218e-08
-1.08198e-10
1.78414e-08
-1.04757e-10
1.78604e-08
-1.02078e-10
1.78788e-08
-9.87611e-11
1.78967e-08
-9.6309e-11
1.79141e-08
-9.31201e-11
1.7931e-08
-9.08698e-11
1.79474e-08
-8.78138e-11
1.79633e-08
-8.57394e-11
1.79788e-08
-8.28203e-11
1.79938e-08
-8.0899e-11
1.80084e-08
-7.81189e-11
1.80226e-08
-7.63349e-11
1.80363e-08
-7.36925e-11
1.80497e-08
-7.20374e-11
1.80626e-08
-6.95269e-11
1.80753e-08
-6.79969e-11
1.80875e-08
-6.56045e-11
1.80994e-08
-6.41947e-11
1.8111e-08
-6.19019e-11
1.81222e-08
-6.06036e-11
1.81331e-08
-5.83929e-11
1.81438e-08
-5.71952e-11
1.8154e-08
-5.50618e-11
1.8164e-08
-5.39557e-11
1.81737e-08
-5.19128e-11
1.81832e-08
-5.08954e-11
1.81923e-08
-4.8975e-11
1.82012e-08
-4.80493e-11
1.82098e-08
-4.62906e-11
1.82183e-08
-4.54606e-11
1.82264e-08
-4.38948e-11
1.82344e-08
-4.31539e-11
1.82422e-08
-4.17798e-11
1.82498e-08
-4.10932e-11
1.82572e-08
-3.98573e-11
1.82645e-08
-3.91437e-11
1.82716e-08
-3.79256e-11
1.82785e-08
-3.70531e-11
1.82851e-08
-3.56817e-11
1.82916e-08
-3.449e-11
1.82978e-08
-3.27846e-11
1.83037e-08
-3.11375e-11
1.83093e-08
-2.89781e-11
1.83144e-08
-2.68259e-11
1.83191e-08
-2.42108e-11
1.83234e-08
-2.16343e-11
1.83272e-08
-1.87064e-11
1.83304e-08
-1.59133e-11
1.83331e-08
-1.29251e-11
1.83353e-08
-1.01985e-11
1.83369e-08
-7.44251e-12
1.83381e-08
-5.06005e-12
1.83389e-08
-2.78115e-12
1.83392e-08
-9.41884e-13
1.83393e-08
7.18704e-13
1.83391e-08
1.9339e-12
1.83386e-08
2.95924e-12
1.8338e-08
3.58454e-12
1.83374e-08
4.05658e-12
1.83366e-08
4.20795e-12
1.83358e-08
4.26745e-12
1.83351e-08
4.09672e-12
1.83343e-08
3.89749e-12
1.83337e-08
3.55217e-12
1.8333e-08
3.22955e-12
1.83325e-08
2.82697e-12
1.8332e-08
2.4794e-12
1.83316e-08
2.09777e-12
1.83312e-08
1.78482e-12
1.83309e-08
1.46572e-12
1.83306e-08
1.21397e-12
1.83304e-08
9.71264e-13
1.83303e-08
7.84693e-13
1.83301e-08
6.14574e-13
1.833e-08
4.84284e-13
1.833e-08
3.7457e-13
1.83299e-08
2.87031e-13
1.83298e-08
2.2332e-13
1.83298e-08
1.6471e-13
1.83298e-08
1.33907e-13
1.83298e-08
9.22578e-14
1.83297e-08
8.4244e-14
1.83297e-08
5.13815e-14
1.83297e-08
5.89717e-14
1.83297e-08
2.88407e-14
1.83297e-08
4.74449e-14
1.83297e-08
1.68094e-14
1.83297e-08
4.35698e-14
1.83297e-08
9.82594e-15
1.83297e-08
4.32269e-14
1.83297e-08
5.74189e-15
1.83297e-08
4.48725e-14
1.83297e-08
2.39292e-15
1.83297e-08
4.69347e-14
1.83297e-08
-2.66402e-16
1.83296e-08
4.94712e-14
1.83296e-08
-3.17364e-15
1.83296e-08
5.18272e-14
1.83296e-08
-5.69498e-15
1.83296e-08
5.44761e-14
1.83296e-08
-8.78281e-15
1.83296e-08
5.66048e-14
1.83296e-08
-1.17571e-14
1.83296e-08
5.86982e-14
1.83296e-08
-1.47418e-14
1.83296e-08
6.04449e-14
1.83296e-08
-1.72216e-14
1.83296e-08
6.17967e-14
1.83296e-08
-1.89131e-14
1.83296e-08
6.24483e-14
1.83296e-08
-1.93282e-14
1.83296e-08
5.75351e-14
1.83296e-08
-1.16507e-14
1.83296e-08
4.48948e-14
1.83296e-08
5.96629e-15
1.83296e-08
1.87103e-14
1.83296e-08
3.70081e-14
1.83296e-08
-1.63373e-14
1.83296e-08
6.59098e-14
1.83296e-08
-3.16642e-14
1.83296e-08
5.46515e-14
1.83295e-08
7.97332e-15
1.83296e-08
-9.6007e-15
1.83295e-08
7.34052e-14
1.83295e-08
-5.09454e-14
1.83295e-08
6.63554e-14
1.83295e-08
-2.3738e-15
1.83295e-08
2.18262e-15
1.83295e-08
3.77557e-14
1.83295e-08
-2.46029e-14
1.83295e-08
5.91366e-14
1.83295e-08
-3.37995e-13
1.83297e-08
-1.36339e-13
-6.13159e-12
1.31424e-08
-3.808e-09
1.35191e-08
-2.28996e-09
1.37953e-08
-1.63288e-09
1.40144e-08
-1.33006e-09
1.41964e-08
-1.08423e-09
1.43573e-08
-9.69511e-10
1.45041e-08
-8.78103e-10
1.46395e-08
-8.13683e-10
1.47669e-08
-7.62874e-10
1.48868e-08
-7.19716e-10
1.5001e-08
-6.84769e-10
1.51098e-08
-6.53096e-10
1.52142e-08
-6.26587e-10
1.53142e-08
-6.01719e-10
1.54106e-08
-5.80389e-10
1.55033e-08
-5.59752e-10
1.55928e-08
-5.41816e-10
1.56792e-08
-5.23916e-10
1.57627e-08
-5.08301e-10
1.58433e-08
-4.92242e-10
1.59214e-08
-4.78283e-10
1.59968e-08
-4.63523e-10
1.60698e-08
-4.50804e-10
1.61403e-08
-4.37018e-10
1.62087e-08
-4.25276e-10
1.62747e-08
-4.12268e-10
1.63388e-08
-4.01338e-10
1.64006e-08
-3.88992e-10
1.64606e-08
-3.78767e-10
1.65185e-08
-3.67017e-10
1.65748e-08
-3.57421e-10
1.66291e-08
-3.46231e-10
1.66818e-08
-3.37208e-10
1.67327e-08
-3.26557e-10
1.67821e-08
-3.18063e-10
1.68298e-08
-3.07939e-10
1.68762e-08
-2.99935e-10
1.69209e-08
-2.9033e-10
1.69644e-08
-2.82779e-10
1.70064e-08
-2.73689e-10
1.70472e-08
-2.66556e-10
1.70867e-08
-2.57975e-10
1.7125e-08
-2.51225e-10
1.7162e-08
-2.43147e-10
1.7198e-08
-2.36748e-10
1.72328e-08
-2.29166e-10
1.72666e-08
-2.23086e-10
1.72994e-08
-2.15989e-10
1.73311e-08
-2.102e-10
1.73619e-08
-2.03578e-10
1.73917e-08
-1.98052e-10
1.74207e-08
-1.9189e-10
1.74488e-08
-1.86605e-10
1.7476e-08
-1.80888e-10
1.75024e-08
-1.7582e-10
1.7528e-08
-1.70532e-10
1.75528e-08
-1.65664e-10
1.7577e-08
-1.60785e-10
1.76003e-08
-1.561e-10
1.76231e-08
-1.51612e-10
1.76451e-08
-1.47096e-10
1.76665e-08
-1.42978e-10
1.76872e-08
-1.38621e-10
1.77073e-08
-1.34851e-10
1.77269e-08
-1.30645e-10
1.77459e-08
-1.27197e-10
1.77642e-08
-1.23139e-10
1.77822e-08
-1.19988e-10
1.77995e-08
-1.16079e-10
1.78164e-08
-1.13195e-10
1.78327e-08
-1.0944e-10
1.78486e-08
-1.06792e-10
1.7864e-08
-1.03197e-10
1.7879e-08
-1.00755e-10
1.78935e-08
-9.73228e-11
1.79077e-08
-9.50612e-11
1.79213e-08
-9.17939e-11
1.79347e-08
-8.96933e-11
1.79476e-08
-8.6589e-11
1.79602e-08
-8.46399e-11
1.79724e-08
-8.16913e-11
1.79843e-08
-7.98894e-11
1.79957e-08
-7.70805e-11
1.8007e-08
-7.54202e-11
1.80178e-08
-7.27294e-11
1.80284e-08
-7.12003e-11
1.80386e-08
-6.86073e-11
1.80486e-08
-6.71956e-11
1.80582e-08
-6.46945e-11
1.80677e-08
-6.33891e-11
1.80767e-08
-6.09946e-11
1.80856e-08
-5.97913e-11
1.80942e-08
-5.75402e-11
1.81026e-08
-5.64421e-11
1.81107e-08
-5.43799e-11
1.81186e-08
-5.33927e-11
1.81263e-08
-5.15566e-11
1.81338e-08
-5.06749e-11
1.81411e-08
-4.90652e-11
1.81482e-08
-4.82517e-11
1.81552e-08
-4.68089e-11
1.8162e-08
-4.59726e-11
1.81687e-08
-4.4559e-11
1.81752e-08
-4.35485e-11
1.81814e-08
-4.19658e-11
1.81875e-08
-4.0594e-11
1.81934e-08
-3.86293e-11
1.8199e-08
-3.67327e-11
1.82042e-08
-3.42401e-11
1.82092e-08
-3.1753e-11
1.82137e-08
-2.87222e-11
1.82178e-08
-2.57294e-11
1.82214e-08
-2.2319e-11
1.82245e-08
-1.90561e-11
1.82272e-08
-1.55559e-11
1.82293e-08
-1.2351e-11
1.8231e-08
-9.10293e-12
1.82322e-08
-6.28295e-12
1.8233e-08
-3.57829e-12
1.82334e-08
-1.38285e-12
1.82336e-08
6.05467e-13
1.82334e-08
2.07349e-12
1.82331e-08
3.31758e-12
1.82325e-08
4.09084e-12
1.82319e-08
4.68036e-12
1.82312e-08
4.88987e-12
1.82305e-08
4.98631e-12
1.82298e-08
4.80803e-12
1.82291e-08
4.59103e-12
1.82285e-08
4.19837e-12
1.82279e-08
3.82799e-12
1.82273e-08
3.36049e-12
1.82269e-08
2.95448e-12
1.82265e-08
2.50639e-12
1.82261e-08
2.13711e-12
1.82258e-08
1.75954e-12
1.82256e-08
1.46025e-12
1.82254e-08
1.17125e-12
1.82252e-08
9.48073e-13
1.82251e-08
7.44316e-13
1.8225e-08
5.87642e-13
1.82249e-08
4.55409e-13
1.82248e-08
3.49721e-13
1.82248e-08
2.72296e-13
1.82247e-08
2.0141e-13
1.82247e-08
1.63376e-13
1.82247e-08
1.13114e-13
1.82247e-08
1.02443e-13
1.82247e-08
6.30434e-14
1.82246e-08
7.11357e-14
1.82246e-08
3.53104e-14
1.82246e-08
5.66367e-14
1.82246e-08
2.04577e-14
1.82246e-08
5.1557e-14
1.82246e-08
1.18519e-14
1.82246e-08
5.08779e-14
1.82246e-08
6.847e-15
1.82246e-08
5.269e-14
1.82246e-08
2.79838e-15
1.82246e-08
5.50647e-14
1.82246e-08
-3.80602e-16
1.82246e-08
5.80458e-14
1.82246e-08
-3.83287e-15
1.82246e-08
6.08277e-14
1.82246e-08
-6.80808e-15
1.82246e-08
6.3971e-14
1.82246e-08
-1.04557e-14
1.82246e-08
6.64972e-14
1.82246e-08
-1.39703e-14
1.82246e-08
6.89981e-14
1.82246e-08
-1.75154e-14
1.82245e-08
7.11135e-14
1.82245e-08
-2.04908e-14
1.82245e-08
7.27977e-14
1.82245e-08
-2.2566e-14
1.82245e-08
7.3682e-14
1.82245e-08
-2.31479e-14
1.82245e-08
6.7961e-14
1.82245e-08
-1.41295e-14
1.82245e-08
5.31443e-14
1.82245e-08
6.46286e-15
1.82245e-08
2.2732e-14
1.82245e-08
4.21017e-14
1.82245e-08
-1.6845e-14
1.82245e-08
7.35269e-14
1.82245e-08
-3.14765e-14
1.82245e-08
5.66196e-14
1.82245e-08
1.81965e-14
1.82245e-08
-2.04928e-14
1.82245e-08
9.50475e-14
1.82245e-08
-6.84282e-14