/*--------------------------------*- C++ -*----------------------------------*\
| =========                 |                                                 |
| \\      /  F ield         | OpenFOAM: The Open Source CFD Toolbox           |
|  \\    /   O peration     | Version:  2412                                  |
|   \\  /    A nd           | Website:  www.openfoam.com                      |
|    \\/     M anipulation  |                                                 |
\*---------------------------------------------------------------------------*/
FoamFile
{
    version     2.0;
    format      ascii;
    arch        "LSB;label=32;scalar=64";
    class       volVectorField;
    location    "491";
    object      U;
}
// * * * * * * * * * * * * * * * * * * * * * * * * * * * * * * * * * * * * * //

dimensions      [0 1 -1 0 0 0 0];

internalField   nonuniform List<vector> 
8000
(
(0.0500285 -4.09737e-05 0)
(0.0544573 -2.79043e-05 0)
(0.0540796 -1.65004e-05 0)
(0.055961 -1.56371e-05 0)
(0.0562377 -1.15218e-05 0)
(0.05719 -1.10225e-05 0)
(0.0576462 -9.59563e-06 0)
(0.0582959 -9.1095e-06 0)
(0.0587658 -8.42192e-06 0)
(0.0592932 -8.01208e-06 0)
(0.0597356 -7.5883e-06 0)
(0.0602002 -7.25887e-06 0)
(0.0606092 -6.95784e-06 0)
(0.0610346 -6.69097e-06 0)
(0.0614128 -6.4587e-06 0)
(0.06181 -6.23615e-06 0)
(0.0621611 -6.04676e-06 0)
(0.0625362 -5.85461e-06 0)
(0.0628633 -5.69354e-06 0)
(0.0632201 -5.52206e-06 0)
(0.0635254 -5.38039e-06 0)
(0.0638663 -5.22307e-06 0)
(0.0641515 -5.09514e-06 0)
(0.0644781 -4.94781e-06 0)
(0.0647445 -4.83003e-06 0)
(0.065058 -4.69012e-06 0)
(0.0653065 -4.58019e-06 0)
(0.0656078 -4.44624e-06 0)
(0.0658391 -4.34273e-06 0)
(0.066129 -4.21394e-06 0)
(0.0663438 -4.11595e-06 0)
(0.0666229 -3.992e-06 0)
(0.0668219 -3.89892e-06 0)
(0.0670906 -3.77975e-06 0)
(0.0672746 -3.69115e-06 0)
(0.0675333 -3.57682e-06 0)
(0.0677029 -3.49237e-06 0)
(0.067952 -3.38302e-06 0)
(0.068108 -3.30242e-06 0)
(0.0683479 -3.19821e-06 0)
(0.0684911 -3.12119e-06 0)
(0.0687219 -3.02225e-06 0)
(0.068853 -2.94854e-06 0)
(0.0690751 -2.85499e-06 0)
(0.069195 -2.78431e-06 0)
(0.0694086 -2.69622e-06 0)
(0.069518 -2.62832e-06 0)
(0.0697233 -2.54571e-06 0)
(0.069823 -2.48035e-06 0)
(0.0700202 -2.40318e-06 0)
(0.070111 -2.34013e-06 0)
(0.0703002 -2.26835e-06 0)
(0.0703829 -2.20741e-06 0)
(0.0705642 -2.14089e-06 0)
(0.0706396 -2.08189e-06 0)
(0.0708132 -2.02049e-06 0)
(0.0708819 -1.96328e-06 0)
(0.0710479 -1.90681e-06 0)
(0.0711106 -1.85126e-06 0)
(0.0712692 -1.79951e-06 0)
(0.0713264 -1.74553e-06 0)
(0.0714778 -1.69827e-06 0)
(0.0715302 -1.64579e-06 0)
(0.0716744 -1.60275e-06 0)
(0.0717225 -1.55174e-06 0)
(0.0718597 -1.51263e-06 0)
(0.0719041 -1.4631e-06 0)
(0.0720344 -1.42759e-06 0)
(0.0720754 -1.37961e-06 0)
(0.0721992 -1.34735e-06 0)
(0.0722371 -1.301e-06 0)
(0.0723545 -1.27161e-06 0)
(0.0723898 -1.227e-06 0)
(0.072501 -1.2001e-06 0)
(0.0725339 -1.15733e-06 0)
(0.0726391 -1.13256e-06 0)
(0.0726698 -1.09172e-06 0)
(0.0727695 -1.06884e-06 0)
(0.0727982 -1.02997e-06 0)
(0.0728924 -1.00881e-06 0)
(0.0729193 -9.71854e-07 0)
(0.0730084 -9.52327e-07 0)
(0.0730336 -9.17101e-07 0)
(0.0731179 -8.991e-07 0)
(0.0731415 -8.65342e-07 0)
(0.0732212 -8.48743e-07 0)
(0.0732434 -8.16218e-07 0)
(0.0733187 -8.00911e-07 0)
(0.0733395 -7.69585e-07 0)
(0.0734106 -7.55527e-07 0)
(0.0734301 -7.25633e-07 0)
(0.0734973 -7.12856e-07 0)
(0.0735156 -6.84879e-07 0)
(0.0735792 -6.73452e-07 0)
(0.0735964 -6.47936e-07 0)
(0.0736566 -6.37856e-07 0)
(0.0736728 -6.15151e-07 0)
(0.0737301 -6.06154e-07 0)
(0.0737454 -5.86049e-07 0)
(0.0738001 -5.77363e-07 0)
(0.0738146 -5.58816e-07 0)
(0.0738669 -5.48971e-07 0)
(0.0738804 -5.29995e-07 0)
(0.0739303 -5.16892e-07 0)
(0.0739424 -4.94925e-07 0)
(0.0739896 -4.76316e-07 0)
(0.0739997 -4.48955e-07 0)
(0.0740435 -4.23274e-07 0)
(0.0740508 -3.89305e-07 0)
(0.0740905 -3.56513e-07 0)
(0.074094 -3.16607e-07 0)
(0.0741288 -2.78602e-07 0)
(0.074128 -2.35439e-07 0)
(0.0741576 -1.95737e-07 0)
(0.0741521 -1.53266e-07 0)
(0.0741765 -1.16053e-07 0)
(0.0741667 -7.83685e-08 0)
(0.0741863 -4.73282e-08 0)
(0.0741729 -1.7478e-08 0)
(0.0741888 5.11976e-09 0)
(0.0741727 2.57539e-08 0)
(0.0741859 3.93965e-08 0)
(0.0741683 5.1172e-08 0)
(0.0741799 5.68651e-08 0)
(0.0741617 6.13705e-08 0)
(0.0741726 6.10611e-08 0)
(0.0741545 6.04825e-08 0)
(0.0741653 5.64e-08 0)
(0.0741477 5.29034e-08 0)
(0.0741588 4.70466e-08 0)
(0.0741421 4.24028e-08 0)
(0.0741536 3.62538e-08 0)
(0.0741377 3.1662e-08 0)
(0.0741497 2.61311e-08 0)
(0.0741346 2.22495e-08 0)
(0.0741469 1.77573e-08 0)
(0.0741325 1.48199e-08 0)
(0.074145 1.14443e-08 0)
(0.0741311 9.41582e-09 0)
(0.0741438 7.03522e-09 0)
(0.0741303 5.74423e-09 0)
(0.0741431 4.15723e-09 0)
(0.0741298 3.39869e-09 0)
(0.0741426 2.39801e-09 0)
(0.0741296 1.98177e-09 0)
(0.0741423 1.39169e-09 0)
(0.0741295 1.16273e-09 0)
(0.0741421 8.54213e-10 0)
(0.0741294 7.11041e-10 0)
(0.0741419 5.95436e-10 0)
(0.0741294 4.65943e-10 0)
(0.0741418 4.885e-10 0)
(0.0741294 3.35755e-10 0)
(0.0741417 4.63121e-10 0)
(0.0741294 2.58099e-10 0)
(0.0741417 4.73249e-10 0)
(0.0741294 2.10137e-10 0)
(0.0741416 5.02473e-10 0)
(0.0741294 1.67812e-10 0)
(0.0741415 5.34032e-10 0)
(0.0741294 1.32155e-10 0)
(0.0741414 5.69287e-10 0)
(0.0741294 9.27656e-11 0)
(0.0741414 6.01273e-10 0)
(0.0741293 5.80597e-11 0)
(0.0741413 6.35347e-10 0)
(0.0741293 1.70874e-11 0)
(0.0741412 6.61791e-10 0)
(0.0741293 -2.09669e-11 0)
(0.0741412 6.85338e-10 0)
(0.0741293 -5.67671e-11 0)
(0.0741411 7.01793e-10 0)
(0.0741293 -8.34309e-11 0)
(0.0741411 7.10708e-10 0)
(0.0741293 -9.90249e-11 0)
(0.074141 7.09919e-10 0)
(0.0741292 -9.94234e-11 0)
(0.0741409 6.46079e-10 0)
(0.0741292 -6.31586e-12 0)
(0.0741409 4.89027e-10 0)
(0.0741293 2.11064e-10 0)
(0.0741408 1.52261e-10 0)
(0.0741293 6.32039e-10 0)
(0.0741406 -3.67928e-10 0)
(0.0741294 1.13548e-09 0)
(0.0741405 -7.66172e-10 0)
(0.0741295 1.22779e-09 0)
(0.0741403 -4.67192e-10 0)
(0.0741296 4.95918e-10 0)
(0.0741402 4.42381e-10 0)
(0.0741296 -2.27697e-10 0)
(0.0741402 4.91465e-10 0)
(0.0741296 5.32129e-10 0)
(0.0741401 -9.06883e-10 0)
(0.0741297 2.04684e-09 0)
(0.0741398 -2.7251e-09 0)
(0.0741301 4.8316e-09 0)
(0.0741393 -1.32295e-08 0)
(0.0741314 2.07634e-08 0)
(0.0741372 -4.48699e-08 0)
(0.0500273 -0.000124011 0)
(0.0544587 -8.08719e-05 0)
(0.0540813 -5.14266e-05 0)
(0.055963 -4.59641e-05 0)
(0.0562397 -3.51811e-05 0)
(0.0571923 -3.27921e-05 0)
(0.0576483 -2.89754e-05 0)
(0.0582983 -2.72535e-05 0)
(0.0587679 -2.5329e-05 0)
(0.0592957 -2.402e-05 0)
(0.0597377 -2.27891e-05 0)
(0.0602028 -2.17772e-05 0)
(0.0606114 -2.0884e-05 0)
(0.0610372 -2.00773e-05 0)
(0.0614149 -1.93805e-05 0)
(0.0618125 -1.87123e-05 0)
(0.0621629 -1.81405e-05 0)
(0.0625383 -1.75653e-05 0)
(0.0628645 -1.70772e-05 0)
(0.0632213 -1.65646e-05 0)
(0.0635256 -1.61342e-05 0)
(0.0638664 -1.56643e-05 0)
(0.0641504 -1.5275e-05 0)
(0.0644767 -1.48353e-05 0)
(0.0647416 -1.44764e-05 0)
(0.0650546 -1.40592e-05 0)
(0.0653015 -1.37242e-05 0)
(0.0656022 -1.33249e-05 0)
(0.0658317 -1.30094e-05 0)
(0.0661208 -1.26257e-05 0)
(0.0663338 -1.23272e-05 0)
(0.0666119 -1.19581e-05 0)
(0.0668091 -1.16748e-05 0)
(0.0670767 -1.13199e-05 0)
(0.0672588 -1.10505e-05 0)
(0.0675163 -1.07101e-05 0)
(0.067684 -1.04537e-05 0)
(0.0679318 -1.0128e-05 0)
(0.068086 -9.88365e-06 0)
(0.0683245 -9.57315e-06 0)
(0.0684659 -9.34006e-06 0)
(0.0686953 -9.04511e-06 0)
(0.0688248 -8.82246e-06 0)
(0.0690454 -8.54334e-06 0)
(0.0691637 -8.33032e-06 0)
(0.0693758 -8.0672e-06 0)
(0.0694838 -7.86303e-06 0)
(0.0696874 -7.61596e-06 0)
(0.0697859 -7.4199e-06 0)
(0.0699813 -7.18879e-06 0)
(0.0700711 -7.00013e-06 0)
(0.0702585 -6.78478e-06 0)
(0.0703402 -6.60288e-06 0)
(0.0705198 -6.40296e-06 0)
(0.0705943 -6.22727e-06 0)
(0.0707661 -6.04235e-06 0)
(0.0708341 -5.87237e-06 0)
(0.0709983 -5.70193e-06 0)
(0.0710604 -5.53725e-06 0)
(0.0712172 -5.38068e-06 0)
(0.0712739 -5.22097e-06 0)
(0.0714235 -5.07763e-06 0)
(0.0714755 -4.92263e-06 0)
(0.0716179 -4.79175e-06 0)
(0.0716658 -4.64134e-06 0)
(0.0718012 -4.52207e-06 0)
(0.0718453 -4.37624e-06 0)
(0.071974 -4.26765e-06 0)
(0.0720148 -4.12653e-06 0)
(0.0721369 -4.02759e-06 0)
(0.0721747 -3.89144e-06 0)
(0.0722904 -3.80103e-06 0)
(0.0723257 -3.67014e-06 0)
(0.0724353 -3.58714e-06 0)
(0.0724681 -3.46178e-06 0)
(0.0725719 -3.38519e-06 0)
(0.0726025 -3.26556e-06 0)
(0.0727007 -3.19465e-06 0)
(0.0727294 -3.08081e-06 0)
(0.0728223 -3.01517e-06 0)
(0.0728491 -2.90693e-06 0)
(0.072937 -2.84632e-06 0)
(0.0729622 -2.74313e-06 0)
(0.0730452 -2.68727e-06 0)
(0.0730688 -2.58833e-06 0)
(0.0731474 -2.53687e-06 0)
(0.0731695 -2.44147e-06 0)
(0.0732437 -2.39403e-06 0)
(0.0732646 -2.30203e-06 0)
(0.0733346 -2.25841e-06 0)
(0.0733542 -2.17048e-06 0)
(0.0734203 -2.13071e-06 0)
(0.0734387 -2.04827e-06 0)
(0.0735012 -2.01253e-06 0)
(0.0735185 -1.93723e-06 0)
(0.0735778 -1.90555e-06 0)
(0.073594 -1.83855e-06 0)
(0.0736504 -1.81029e-06 0)
(0.0736657 -1.75114e-06 0)
(0.0737195 -1.72423e-06 0)
(0.0737339 -1.67007e-06 0)
(0.0737854 -1.6404e-06 0)
(0.0737989 -1.58555e-06 0)
(0.0738481 -1.54704e-06 0)
(0.0738603 -1.48397e-06 0)
(0.073907 -1.42986e-06 0)
(0.0739173 -1.35123e-06 0)
(0.0739608 -1.27652e-06 0)
(0.0739685 -1.17826e-06 0)
(0.0740081 -1.08226e-06 0)
(0.0740123 -9.65773e-07 0)
(0.0740473 -8.53481e-07 0)
(0.0740472 -7.26229e-07 0)
(0.0740771 -6.07681e-07 0)
(0.0740726 -4.81167e-07 0)
(0.0740973 -3.6875e-07 0)
(0.0740884 -2.55274e-07 0)
(0.0741084 -1.60224e-07 0)
(0.0740959 -6.92717e-08 0)
(0.074112 1.15171e-09 0)
(0.0740967 6.49282e-08 0)
(0.07411 1.08664e-07 0)
(0.074093 1.45843e-07 0)
(0.0741046 1.65477e-07 0)
(0.0740868 1.80465e-07 0)
(0.0740975 1.8158e-07 0)
(0.0740797 1.80768e-07 0)
(0.0740903 1.69977e-07 0)
(0.074073 1.59861e-07 0)
(0.0740839 1.4322e-07 0)
(0.0740673 1.29216e-07 0)
(0.0740785 1.11305e-07 0)
(0.0740628 9.7154e-08 0)
(0.0740745 8.08497e-08 0)
(0.0740595 6.86657e-08 0)
(0.0740716 5.53564e-08 0)
(0.0740573 4.59468e-08 0)
(0.0740696 3.59543e-08 0)
(0.0740558 2.92814e-08 0)
(0.0740683 2.22915e-08 0)
(0.074055 1.78743e-08 0)
(0.0740675 1.33042e-08 0)
(0.0740545 1.05376e-08 0)
(0.074067 7.76843e-09 0)
(0.0740542 6.07782e-09 0)
(0.0740667 4.57566e-09 0)
(0.0740541 3.48559e-09 0)
(0.0740664 2.85328e-09 0)
(0.074054 2.0492e-09 0)
(0.0740663 2.01188e-09 0)
(0.074054 1.26788e-09 0)
(0.0740662 1.65431e-09 0)
(0.074054 8.53476e-10 0)
(0.0740661 1.55894e-09 0)
(0.074054 6.08816e-10 0)
(0.074066 1.57927e-09 0)
(0.074054 4.60361e-10 0)
(0.0740659 1.66277e-09 0)
(0.074054 3.31622e-10 0)
(0.0740659 1.75539e-09 0)
(0.074054 2.24566e-10 0)
(0.0740658 1.86133e-09 0)
(0.0740539 1.05983e-10 0)
(0.0740657 1.95815e-09 0)
(0.0740539 1.36745e-12 0)
(0.0740657 2.0634e-09 0)
(0.0740539 -1.23943e-10 0)
(0.0740656 2.14654e-09 0)
(0.0740539 -2.4222e-10 0)
(0.0740655 2.22345e-09 0)
(0.0740539 -3.56078e-10 0)
(0.0740655 2.281e-09 0)
(0.0740539 -4.44105e-10 0)
(0.0740654 2.31719e-09 0)
(0.0740538 -4.97991e-10 0)
(0.0740654 2.32092e-09 0)
(0.0740538 -4.99198e-10 0)
(0.0740653 2.12197e-09 0)
(0.0740538 -2.02555e-10 0)
(0.0740652 1.62346e-09 0)
(0.0740539 4.91265e-10 0)
(0.0740651 5.63739e-10 0)
(0.0740539 1.798e-09 0)
(0.074065 -1.01003e-09 0)
(0.074054 3.26357e-09 0)
(0.0740648 -2.07991e-09 0)
(0.0740541 3.34349e-09 0)
(0.0740646 -9.62708e-10 0)
(0.0740542 9.97492e-10 0)
(0.0740646 1.75642e-09 0)
(0.0740541 -9.7732e-10 0)
(0.0740646 1.62858e-09 0)
(0.0740541 1.44999e-09 0)
(0.0740645 -2.39865e-09 0)
(0.0740542 5.5028e-09 0)
(0.0740643 -7.10638e-09 0)
(0.0740545 1.25153e-08 0)
(0.074064 -3.36274e-08 0)
(0.0740552 3.92834e-08 0)
(0.0740644 -1.65649e-07 0)
(0.0500266 -0.000208782 0)
(0.0544633 -0.000130394 0)
(0.0540855 -8.85871e-05 0)
(0.0559673 -7.51303e-05 0)
(0.0562439 -5.95515e-05 0)
(0.0571968 -5.42214e-05 0)
(0.0576525 -4.85702e-05 0)
(0.058303 -4.53016e-05 0)
(0.0587722 -4.23061e-05 0)
(0.0593005 -4.00045e-05 0)
(0.0597422 -3.8015e-05 0)
(0.0602077 -3.62928e-05 0)
(0.0606159 -3.4819e-05 0)
(0.0610421 -3.34644e-05 0)
(0.0614192 -3.23016e-05 0)
(0.061817 -3.11854e-05 0)
(0.0621665 -3.02248e-05 0)
(0.0625419 -2.92656e-05 0)
(0.0628669 -2.84417e-05 0)
(0.0632233 -2.75873e-05 0)
(0.063526 -2.68584e-05 0)
(0.0638659 -2.60756e-05 0)
(0.0641479 -2.54149e-05 0)
(0.064473 -2.46827e-05 0)
(0.0647356 -2.40732e-05 0)
(0.0650471 -2.3379e-05 0)
(0.0652912 -2.28098e-05 0)
(0.06559 -2.21461e-05 0)
(0.0658166 -2.16105e-05 0)
(0.0661035 -2.09735e-05 0)
(0.0663133 -2.04671e-05 0)
(0.0665889 -1.98549e-05 0)
(0.0667828 -1.93749e-05 0)
(0.0670477 -1.87869e-05 0)
(0.0672265 -1.83313e-05 0)
(0.0674812 -1.77675e-05 0)
(0.0676456 -1.73347e-05 0)
(0.0678904 -1.67956e-05 0)
(0.0680413 -1.6384e-05 0)
(0.0682767 -1.58701e-05 0)
(0.068415 -1.54783e-05 0)
(0.0686412 -1.49902e-05 0)
(0.0687676 -1.46168e-05 0)
(0.068985 -1.41547e-05 0)
(0.0691004 -1.37984e-05 0)
(0.0693092 -1.33625e-05 0)
(0.0694144 -1.30219e-05 0)
(0.0696149 -1.26123e-05 0)
(0.0697107 -1.22861e-05 0)
(0.069903 -1.19025e-05 0)
(0.0699902 -1.15894e-05 0)
(0.0701745 -1.12316e-05 0)
(0.070254 -1.09305e-05 0)
(0.0704304 -1.05978e-05 0)
(0.0705028 -1.03077e-05 0)
(0.0706715 -9.99949e-06 0)
(0.0707376 -9.71953e-06 0)
(0.0708988 -9.4349e-06 0)
(0.0709591 -9.16428e-06 0)
(0.0711129 -8.90232e-06 0)
(0.071168 -8.64041e-06 0)
(0.0713146 -8.40004e-06 0)
(0.0713652 -8.14634e-06 0)
(0.0715048 -7.92638e-06 0)
(0.0715513 -7.6806e-06 0)
(0.071684 -7.47968e-06 0)
(0.0717269 -7.24173e-06 0)
(0.0718529 -7.05834e-06 0)
(0.0718926 -6.82839e-06 0)
(0.0720121 -6.66087e-06 0)
(0.072049 -6.43927e-06 0)
(0.0721622 -6.28584e-06 0)
(0.0721966 -6.07303e-06 0)
(0.0723037 -5.93187e-06 0)
(0.0723358 -5.72821e-06 0)
(0.0724372 -5.5977e-06 0)
(0.0724672 -5.40347e-06 0)
(0.0725631 -5.28246e-06 0)
(0.0725912 -5.09769e-06 0)
(0.0726819 -4.98555e-06 0)
(0.0727082 -4.80989e-06 0)
(0.072794 -4.70627e-06 0)
(0.0728186 -4.53878e-06 0)
(0.0728997 -4.4433e-06 0)
(0.0729229 -4.28266e-06 0)
(0.0729995 -4.19472e-06 0)
(0.0730213 -4.03972e-06 0)
(0.0730937 -3.95868e-06 0)
(0.0731142 -3.80906e-06 0)
(0.0731825 -3.7345e-06 0)
(0.0732017 -3.59128e-06 0)
(0.0732663 -3.52316e-06 0)
(0.0732843 -3.38869e-06 0)
(0.0733454 -3.32725e-06 0)
(0.0733622 -3.20427e-06 0)
(0.0734201 -3.14962e-06 0)
(0.0734359 -3.04016e-06 0)
(0.073491 -2.99143e-06 0)
(0.0735059 -2.89498e-06 0)
(0.0735584 -2.84906e-06 0)
(0.0735725 -2.76126e-06 0)
(0.0736228 -2.71171e-06 0)
(0.0736359 -2.62353e-06 0)
(0.0736841 -2.56056e-06 0)
(0.073696 -2.45972e-06 0)
(0.0737418 -2.37218e-06 0)
(0.073752 -2.2464e-06 0)
(0.0737948 -2.12558e-06 0)
(0.0738026 -1.96762e-06 0)
(0.0738417 -1.8116e-06 0)
(0.0738462 -1.62296e-06 0)
(0.073881 -1.43916e-06 0)
(0.0738815 -1.2314e-06 0)
(0.0739114 -1.03573e-06 0)
(0.0739076 -8.27412e-07 0)
(0.0739324 -6.40097e-07 0)
(0.0739244 -4.51588e-07 0)
(0.0739446 -2.91464e-07 0)
(0.0739328 -1.38895e-07 0)
(0.0739491 -1.85685e-08 0)
(0.0739345 8.96752e-08 0)
(0.0739479 1.66085e-07 0)
(0.0739315 2.30281e-07 0)
(0.0739431 2.66451e-07 0)
(0.0739258 2.93391e-07 0)
(0.0739365 2.98194e-07 0)
(0.0739191 2.98208e-07 0)
(0.0739295 2.82473e-07 0)
(0.0739125 2.66298e-07 0)
(0.0739231 2.40123e-07 0)
(0.0739068 2.16865e-07 0)
(0.0739177 1.88013e-07 0)
(0.0739023 1.64066e-07 0)
(0.0739136 1.37506e-07 0)
(0.0738989 1.16566e-07 0)
(0.0739106 9.47796e-08 0)
(0.0738966 7.83375e-08 0)
(0.0739086 6.19867e-08 0)
(0.0738951 5.00816e-08 0)
(0.0739072 3.8723e-08 0)
(0.0738942 3.06106e-08 0)
(0.0739064 2.33136e-08 0)
(0.0738936 1.8009e-08 0)
(0.0739058 1.37555e-08 0)
(0.0738933 1.03034e-08 0)
(0.0739055 8.20115e-09 0)
(0.0738932 5.79995e-09 0)
(0.0739053 5.17734e-09 0)
(0.0738931 3.29202e-09 0)
(0.0739051 3.68099e-09 0)
(0.0738931 1.92309e-09 0)
(0.073905 3.02979e-09 0)
(0.0738931 1.19672e-09 0)
(0.0739049 2.84066e-09 0)
(0.0738931 7.7069e-10 0)
(0.0739048 2.85791e-09 0)
(0.0738931 5.15806e-10 0)
(0.0739048 2.98947e-09 0)
(0.0738931 2.98155e-10 0)
(0.0739047 3.13963e-09 0)
(0.0738931 1.19629e-10 0)
(0.0739046 3.31548e-09 0)
(0.0738931 -7.83186e-11 0)
(0.0739045 3.47724e-09 0)
(0.0738931 -2.52672e-10 0)
(0.0739045 3.65629e-09 0)
(0.0738931 -4.64404e-10 0)
(0.0739044 3.79983e-09 0)
(0.073893 -6.67136e-10 0)
(0.0739044 3.93728e-09 0)
(0.073893 -8.66687e-10 0)
(0.0739043 4.04638e-09 0)
(0.073893 -1.02671e-09 0)
(0.0739042 4.12319e-09 0)
(0.073893 -1.13007e-09 0)
(0.0739042 4.1464e-09 0)
(0.073893 -1.14274e-09 0)
(0.0739041 3.81208e-09 0)
(0.073893 -6.34262e-10 0)
(0.073904 2.96188e-09 0)
(0.073893 5.55098e-10 0)
(0.0739039 1.15985e-09 0)
(0.0738931 2.75454e-09 0)
(0.0739038 -1.43884e-09 0)
(0.0738932 5.09914e-09 0)
(0.0739036 -3.03147e-09 0)
(0.0738933 4.97283e-09 0)
(0.0739035 -9.08835e-10 0)
(0.0738933 9.10535e-10 0)
(0.0739035 3.58762e-09 0)
(0.0738933 -2.1739e-09 0)
(0.0739035 3.17784e-09 0)
(0.0738932 1.78765e-09 0)
(0.0739034 -2.94459e-09 0)
(0.0738933 7.4015e-09 0)
(0.0739033 -8.93803e-09 0)
(0.0738934 1.54284e-08 0)
(0.0739033 -4.24162e-08 0)
(0.0738936 2.4947e-08 0)
(0.0739044 -3.38622e-07 0)
(0.0500261 -0.00029402 0)
(0.0544712 -0.000180035 0)
(0.0540924 -0.000125615 0)
(0.0559739 -0.000104288 0)
(0.0562504 -8.38792e-05 0)
(0.0572034 -7.56459e-05 0)
(0.0576591 -6.81508e-05 0)
(0.0583099 -6.3346e-05 0)
(0.0587789 -5.92777e-05 0)
(0.0593076 -5.59863e-05 0)
(0.059749 -5.3238e-05 0)
(0.060215 -5.08049e-05 0)
(0.0606228 -4.8749e-05 0)
(0.0610493 -4.68433e-05 0)
(0.0614257 -4.5211e-05 0)
(0.0618234 -4.36413e-05 0)
(0.0621719 -4.22863e-05 0)
(0.0625467 -4.09358e-05 0)
(0.0628701 -3.97691e-05 0)
(0.0632255 -3.85647e-05 0)
(0.0635259 -3.75295e-05 0)
(0.0638642 -3.64254e-05 0)
(0.0641434 -3.54855e-05 0)
(0.0644662 -3.44531e-05 0)
(0.0647254 -3.35854e-05 0)
(0.0650341 -3.26074e-05 0)
(0.0652744 -3.17974e-05 0)
(0.0655699 -3.08638e-05 0)
(0.0657923 -3.01023e-05 0)
(0.0660755 -2.92077e-05 0)
(0.0662808 -2.84888e-05 0)
(0.0665524 -2.76305e-05 0)
(0.0667416 -2.69502e-05 0)
(0.0670022 -2.61273e-05 0)
(0.0671761 -2.54827e-05 0)
(0.0674263 -2.46951e-05 0)
(0.0675859 -2.40837e-05 0)
(0.0678261 -2.33317e-05 0)
(0.0679722 -2.27514e-05 0)
(0.0682029 -2.20355e-05 0)
(0.0683364 -2.14842e-05 0)
(0.0685579 -2.08048e-05 0)
(0.0686797 -2.02804e-05 0)
(0.0688923 -1.96378e-05 0)
(0.0690033 -1.91382e-05 0)
(0.0692074 -1.85326e-05 0)
(0.0693084 -1.80557e-05 0)
(0.0695041 -1.74869e-05 0)
(0.0695959 -1.70309e-05 0)
(0.0697835 -1.64984e-05 0)
(0.069867 -1.60616e-05 0)
(0.0700467 -1.55648e-05 0)
(0.0701227 -1.51454e-05 0)
(0.0702946 -1.46835e-05 0)
(0.0703637 -1.42801e-05 0)
(0.070528 -1.38521e-05 0)
(0.070591 -1.34633e-05 0)
(0.0707479 -1.30679e-05 0)
(0.0708053 -1.26926e-05 0)
(0.0709549 -1.23286e-05 0)
(0.0710075 -1.19658e-05 0)
(0.07115 -1.16315e-05 0)
(0.0711982 -1.12806e-05 0)
(0.0713338 -1.09745e-05 0)
(0.0713781 -1.06349e-05 0)
(0.0715069 -1.0355e-05 0)
(0.0715479 -1.00266e-05 0)
(0.0716701 -9.77093e-06 0)
(0.071708 -9.45387e-06 0)
(0.0718239 -9.22005e-06 0)
(0.0718591 -8.91479e-06 0)
(0.0719688 -8.70038e-06 0)
(0.0720016 -8.40749e-06 0)
(0.0721055 -8.21e-06 0)
(0.0721361 -7.92992e-06 0)
(0.0722344 -7.74716e-06 0)
(0.072263 -7.48021e-06 0)
(0.0723559 -7.31061e-06 0)
(0.0723827 -7.05674e-06 0)
(0.0724706 -6.89947e-06 0)
(0.0724957 -6.65817e-06 0)
(0.0725788 -6.51282e-06 0)
(0.0726024 -6.28277e-06 0)
(0.0726809 -6.14883e-06 0)
(0.072703 -5.92822e-06 0)
(0.0727772 -5.80489e-06 0)
(0.072798 -5.59205e-06 0)
(0.0728681 -5.47836e-06 0)
(0.0728877 -5.27287e-06 0)
(0.0729538 -5.16813e-06 0)
(0.0729722 -4.97136e-06 0)
(0.0730347 -4.87539e-06 0)
(0.0730519 -4.69051e-06 0)
(0.073111 -4.60364e-06 0)
(0.0731271 -4.43443e-06 0)
(0.0731831 -4.35691e-06 0)
(0.0731982 -4.20627e-06 0)
(0.0732515 -4.13712e-06 0)
(0.0732657 -4.00462e-06 0)
(0.0733165 -3.93994e-06 0)
(0.0733299 -3.81995e-06 0)
(0.0733786 -3.75131e-06 0)
(0.0733911 -3.63175e-06 0)
(0.0734378 -3.546e-06 0)
(0.0734491 -3.41012e-06 0)
(0.0734936 -3.29184e-06 0)
(0.0735034 -3.12252e-06 0)
(0.0735451 -2.95922e-06 0)
(0.0735527 -2.74579e-06 0)
(0.073591 -2.5339e-06 0)
(0.0735956 -2.27746e-06 0)
(0.0736298 -2.02616e-06 0)
(0.0736306 -1.74174e-06 0)
(0.0736601 -1.47213e-06 0)
(0.0736569 -1.18477e-06 0)
(0.0736816 -9.24503e-07 0)
(0.0736742 -6.62339e-07 0)
(0.0736944 -4.37719e-07 0)
(0.0736834 -2.23586e-07 0)
(0.0736997 -5.27709e-08 0)
(0.0736859 1.00894e-07 0)
(0.0736993 2.11321e-07 0)
(0.0736836 3.04041e-07 0)
(0.0736951 3.58396e-07 0)
(0.0736785 3.98914e-07 0)
(0.073689 4.08988e-07 0)
(0.0736721 4.11268e-07 0)
(0.0736823 3.91869e-07 0)
(0.0736658 3.70727e-07 0)
(0.0736761 3.3591e-07 0)
(0.0736602 3.04114e-07 0)
(0.0736708 2.64839e-07 0)
(0.0736557 2.3149e-07 0)
(0.0736667 1.94901e-07 0)
(0.0736524 1.65366e-07 0)
(0.0736637 1.35131e-07 0)
(0.07365 1.11678e-07 0)
(0.0736616 8.88865e-08 0)
(0.0736485 7.17057e-08 0)
(0.0736602 5.58475e-08 0)
(0.0736475 4.39816e-08 0)
(0.0736593 3.3817e-08 0)
(0.0736469 2.59292e-08 0)
(0.0736588 2.00601e-08 0)
(0.0736466 1.48258e-08 0)
(0.0736584 1.20075e-08 0)
(0.0736465 8.30028e-09 0)
(0.0736582 7.58599e-09 0)
(0.0736464 4.64706e-09 0)
(0.073658 5.37146e-09 0)
(0.0736464 2.64501e-09 0)
(0.0736579 4.38752e-09 0)
(0.0736464 1.58077e-09 0)
(0.0736578 4.08142e-09 0)
(0.0736464 9.59809e-10 0)
(0.0736577 4.08242e-09 0)
(0.0736464 5.92443e-10 0)
(0.0736576 4.2546e-09 0)
(0.0736464 2.83983e-10 0)
(0.0736576 4.45814e-09 0)
(0.0736464 3.45601e-11 0)
(0.0736575 4.70121e-09 0)
(0.0736464 -2.40839e-10 0)
(0.0736574 4.92575e-09 0)
(0.0736464 -4.81911e-10 0)
(0.0736574 5.17616e-09 0)
(0.0736464 -7.76385e-10 0)
(0.0736573 5.37754e-09 0)
(0.0736463 -1.05943e-09 0)
(0.0736572 5.57308e-09 0)
(0.0736463 -1.34092e-09 0)
(0.0736572 5.73223e-09 0)
(0.0736463 -1.57038e-09 0)
(0.0736571 5.84937e-09 0)
(0.0736463 -1.72177e-09 0)
(0.073657 5.89359e-09 0)
(0.0736463 -1.74683e-09 0)
(0.073657 5.42409e-09 0)
(0.0736463 -1.02389e-09 0)
(0.0736569 4.22387e-09 0)
(0.0736464 6.53189e-10 0)
(0.0736568 1.70589e-09 0)
(0.0736464 3.68902e-09 0)
(0.0736567 -1.81293e-09 0)
(0.0736465 6.7537e-09 0)
(0.0736565 -3.72098e-09 0)
(0.0736466 6.20448e-09 0)
(0.0736564 -4.23609e-10 0)
(0.0736466 3.67119e-10 0)
(0.0736564 5.78886e-09 0)
(0.0736465 -3.71552e-09 0)
(0.0736564 5.102e-09 0)
(0.0736464 1.48639e-09 0)
(0.0736564 -2.42999e-09 0)
(0.0736464 7.58528e-09 0)
(0.0736564 -8.13842e-09 0)
(0.0736464 1.41278e-08 0)
(0.0736566 -4.4808e-08 0)
(0.0736464 4.61978e-09 0)
(0.0736578 -5.3077e-07 0)
(0.0500256 -0.000379336 0)
(0.0544821 -0.000230016 0)
(0.0541018 -0.000162478 0)
(0.0559829 -0.000133514 0)
(0.0562592 -0.000108158 0)
(0.0572124 -9.70931e-05 0)
(0.0576679 -8.77201e-05 0)
(0.058319 -8.13997e-05 0)
(0.058788 -7.62487e-05 0)
(0.0593171 -7.1973e-05 0)
(0.0597583 -6.84622e-05 0)
(0.0602246 -6.53172e-05 0)
(0.060632 -6.26751e-05 0)
(0.0610585 -6.0213e-05 0)
(0.0614341 -5.81047e-05 0)
(0.0618315 -5.60728e-05 0)
(0.0621785 -5.43145e-05 0)
(0.0625522 -5.25618e-05 0)
(0.0628734 -5.10417e-05 0)
(0.0632269 -4.94754e-05 0)
(0.0635244 -4.81227e-05 0)
(0.06386 -4.66855e-05 0)
(0.0641354 -4.54553e-05 0)
(0.0644548 -4.41116e-05 0)
(0.0647095 -4.29757e-05 0)
(0.0650141 -4.17044e-05 0)
(0.0652492 -4.06447e-05 0)
(0.06554 -3.94334e-05 0)
(0.0657567 -3.84386e-05 0)
(0.0660347 -3.72805e-05 0)
(0.066234 -3.63431e-05 0)
(0.0665 -3.52348e-05 0)
(0.066683 -3.43496e-05 0)
(0.0669376 -3.32896e-05 0)
(0.0671052 -3.24526e-05 0)
(0.0673492 -3.14404e-05 0)
(0.0675024 -3.06483e-05 0)
(0.0677363 -2.96839e-05 0)
(0.0678761 -2.89337e-05 0)
(0.0681004 -2.80173e-05 0)
(0.0682277 -2.73059e-05 0)
(0.0684428 -2.64379e-05 0)
(0.0685586 -2.57624e-05 0)
(0.0687648 -2.49427e-05 0)
(0.06887 -2.43003e-05 0)
(0.0690677 -2.35286e-05 0)
(0.0691632 -2.29165e-05 0)
(0.0693527 -2.21925e-05 0)
(0.0694392 -2.16082e-05 0)
(0.0696207 -2.09311e-05 0)
(0.0696992 -2.0372e-05 0)
(0.0698729 -1.97408e-05 0)
(0.0699441 -1.92048e-05 0)
(0.0701102 -1.86183e-05 0)
(0.0701749 -1.81034e-05 0)
(0.0703335 -1.75601e-05 0)
(0.0703923 -1.70645e-05 0)
(0.0705437 -1.65628e-05 0)
(0.0705973 -1.60849e-05 0)
(0.0707415 -1.5623e-05 0)
(0.0707905 -1.51616e-05 0)
(0.0709278 -1.47376e-05 0)
(0.0709727 -1.42917e-05 0)
(0.0711032 -1.39033e-05 0)
(0.0711445 -1.34722e-05 0)
(0.0712684 -1.3117e-05 0)
(0.0713065 -1.27006e-05 0)
(0.0714241 -1.23759e-05 0)
(0.0714593 -1.19742e-05 0)
(0.0715707 -1.16771e-05 0)
(0.0716035 -1.12908e-05 0)
(0.071709 -1.10182e-05 0)
(0.0717394 -1.06477e-05 0)
(0.0718392 -1.03965e-05 0)
(0.0718677 -1.00425e-05 0)
(0.0719621 -9.80989e-06 0)
(0.0719887 -9.47269e-06 0)
(0.0720779 -9.2567e-06 0)
(0.0721029 -8.93614e-06 0)
(0.0721872 -8.73579e-06 0)
(0.0722106 -8.43117e-06 0)
(0.0722903 -8.24596e-06 0)
(0.0723123 -7.95562e-06 0)
(0.0723876 -7.78497e-06 0)
(0.0724082 -7.50665e-06 0)
(0.0724793 -7.3495e-06 0)
(0.0724988 -7.08108e-06 0)
(0.072566 -6.93614e-06 0)
(0.0725842 -6.67706e-06 0)
(0.0726477 -6.54333e-06 0)
(0.0726648 -6.29523e-06 0)
(0.0727247 -6.17239e-06 0)
(0.0727408 -5.93921e-06 0)
(0.0727974 -5.82763e-06 0)
(0.0728124 -5.61411e-06 0)
(0.0728661 -5.51422e-06 0)
(0.0728802 -5.32411e-06 0)
(0.0729312 -5.23495e-06 0)
(0.0729444 -5.06797e-06 0)
(0.0729932 -4.98507e-06 0)
(0.0730055 -4.83451e-06 0)
(0.0730523 -4.74775e-06 0)
(0.0730638 -4.59879e-06 0)
(0.0731086 -4.49194e-06 0)
(0.0731191 -4.3237e-06 0)
(0.0731619 -4.17735e-06 0)
(0.073171 -3.968e-06 0)
(0.0732113 -3.76587e-06 0)
(0.0732184 -3.50126e-06 0)
(0.0732555 -3.23785e-06 0)
(0.0732599 -2.9183e-06 0)
(0.0732932 -2.60399e-06 0)
(0.0732941 -2.24739e-06 0)
(0.073323 -1.90788e-06 0)
(0.0733201 -1.54517e-06 0)
(0.0733444 -1.21496e-06 0)
(0.0733376 -8.81635e-07 0)
(0.0733576 -5.94259e-07 0)
(0.0733473 -3.19726e-07 0)
(0.0733635 -9.89223e-08 0)
(0.0733504 1.00153e-07 0)
(0.0733638 2.45062e-07 0)
(0.0733488 3.67099e-07 0)
(0.0733602 4.40682e-07 0)
(0.0733442 4.95975e-07 0)
(0.0733546 5.12563e-07 0)
(0.0733383 5.18366e-07 0)
(0.0733483 4.96469e-07 0)
(0.0733323 4.7146e-07 0)
(0.0733423 4.28924e-07 0)
(0.073327 3.89427e-07 0)
(0.0733372 3.40363e-07 0)
(0.0733226 2.98176e-07 0)
(0.0733332 2.51924e-07 0)
(0.0733193 2.14134e-07 0)
(0.0733302 1.75608e-07 0)
(0.073317 1.45324e-07 0)
(0.0733281 1.1611e-07 0)
(0.0733154 9.37392e-08 0)
(0.0733267 7.33171e-08 0)
(0.0733144 5.77386e-08 0)
(0.0733258 4.46024e-08 0)
(0.0733139 3.41601e-08 0)
(0.0733253 2.65571e-08 0)
(0.0733135 1.95751e-08 0)
(0.0733249 1.59213e-08 0)
(0.0733134 1.09566e-08 0)
(0.0733247 1.00343e-08 0)
(0.0733133 6.10577e-09 0)
(0.0733245 7.05287e-09 0)
(0.0733133 3.43594e-09 0)
(0.0733244 5.70363e-09 0)
(0.0733133 2.01282e-09 0)
(0.0733243 5.25985e-09 0)
(0.0733133 1.18557e-09 0)
(0.0733242 5.23196e-09 0)
(0.0733133 7.00287e-10 0)
(0.0733241 5.43714e-09 0)
(0.0733133 2.9942e-10 0)
(0.073324 5.68952e-09 0)
(0.0733133 -2.04913e-11 0)
(0.0733239 5.99681e-09 0)
(0.0733133 -3.71483e-10 0)
(0.0733239 6.28184e-09 0)
(0.0733133 -6.76662e-10 0)
(0.0733238 6.60127e-09 0)
(0.0733133 -1.05036e-09 0)
(0.0733237 6.85822e-09 0)
(0.0733133 -1.40995e-09 0)
(0.0733237 7.10982e-09 0)
(0.0733133 -1.76994e-09 0)
(0.0733236 7.31799e-09 0)
(0.0733133 -2.06684e-09 0)
(0.0733236 7.47609e-09 0)
(0.0733133 -2.26625e-09 0)
(0.0733235 7.54484e-09 0)
(0.0733133 -2.30697e-09 0)
(0.0733234 6.94605e-09 0)
(0.0733133 -1.37668e-09 0)
(0.0733233 5.41156e-09 0)
(0.0733133 7.61513e-10 0)
(0.0733232 2.22804e-09 0)
(0.0733134 4.55196e-09 0)
(0.0733231 -2.08517e-09 0)
(0.0733135 8.1716e-09 0)
(0.073323 -4.11884e-09 0)
(0.0733135 7.02805e-09 0)
(0.0733229 4.60291e-10 0)
(0.0733135 -5.89682e-10 0)
(0.0733229 8.31691e-09 0)
(0.0733134 -5.61002e-09 0)
(0.073323 7.44997e-09 0)
(0.0733133 4.71813e-10 0)
(0.073323 -8.50949e-10 0)
(0.0733133 6.22013e-09 0)
(0.073323 -5.2918e-09 0)
(0.0733131 1.02543e-08 0)
(0.0733233 -4.49185e-08 0)
(0.073313 -1.26179e-08 0)
(0.0733243 -7.24932e-07 0)
(0.050025 -0.000464844 0)
(0.0544961 -0.000280165 0)
(0.0541139 -0.000199307 0)
(0.0559944 -0.000162739 0)
(0.0562704 -0.000132429 0)
(0.0572236 -0.000118544 0)
(0.057679 -0.000107292 0)
(0.0583305 -9.94589e-05 0)
(0.0587994 -9.32251e-05 0)
(0.0593289 -8.79644e-05 0)
(0.05977 -8.36889e-05 0)
(0.0602365 -7.98276e-05 0)
(0.0606434 -7.65936e-05 0)
(0.0610698 -7.35665e-05 0)
(0.0614442 -7.09724e-05 0)
(0.0618406 -6.84663e-05 0)
(0.0621856 -6.62917e-05 0)
(0.0625576 -6.41225e-05 0)
(0.0628757 -6.22341e-05 0)
(0.0632264 -6.02909e-05 0)
(0.0635199 -5.86054e-05 0)
(0.0638517 -5.68203e-05 0)
(0.0641221 -5.52854e-05 0)
(0.0644367 -5.36172e-05 0)
(0.0646855 -5.21999e-05 0)
(0.0649845 -5.06241e-05 0)
(0.0652131 -4.93035e-05 0)
(0.0654975 -4.78057e-05 0)
(0.0657071 -4.65684e-05 0)
(0.0659781 -4.51403e-05 0)
(0.0661699 -4.39773e-05 0)
(0.0664285 -4.26147e-05 0)
(0.0666037 -4.15193e-05 0)
(0.0668507 -4.02198e-05 0)
(0.0670104 -3.9187e-05 0)
(0.0672465 -3.79496e-05 0)
(0.0673918 -3.69746e-05 0)
(0.0676177 -3.57988e-05 0)
(0.0677496 -3.48776e-05 0)
(0.0679659 -3.37632e-05 0)
(0.0680855 -3.28917e-05 0)
(0.0682926 -3.18382e-05 0)
(0.0684009 -3.10125e-05 0)
(0.0685992 -3.00195e-05 0)
(0.0686972 -2.92358e-05 0)
(0.0688871 -2.83027e-05 0)
(0.0689756 -2.75573e-05 0)
(0.0691575 -2.66831e-05 0)
(0.0692375 -2.59726e-05 0)
(0.0694114 -2.51562e-05 0)
(0.0694837 -2.44775e-05 0)
(0.0696501 -2.37173e-05 0)
(0.0697154 -2.30675e-05 0)
(0.0698744 -2.23617e-05 0)
(0.0699336 -2.17383e-05 0)
(0.0700853 -2.1085e-05 0)
(0.0701389 -2.04857e-05 0)
(0.0702836 -1.98828e-05 0)
(0.0703324 -1.93056e-05 0)
(0.0704701 -1.87508e-05 0)
(0.0705146 -1.81942e-05 0)
(0.0706457 -1.7685e-05 0)
(0.0706863 -1.71476e-05 0)
(0.0708109 -1.66812e-05 0)
(0.0708482 -1.61623e-05 0)
(0.0709664 -1.57358e-05 0)
(0.0710008 -1.52348e-05 0)
(0.0711129 -1.4845e-05 0)
(0.0711447 -1.43622e-05 0)
(0.0712508 -1.40054e-05 0)
(0.0712804 -1.35414e-05 0)
(0.0713808 -1.32139e-05 0)
(0.0714083 -1.27694e-05 0)
(0.0715033 -1.24674e-05 0)
(0.071529 -1.2043e-05 0)
(0.0716188 -1.17633e-05 0)
(0.0716428 -1.13592e-05 0)
(0.0717276 -1.10994e-05 0)
(0.0717502 -1.07153e-05 0)
(0.0718303 -1.04743e-05 0)
(0.0718515 -1.01095e-05 0)
(0.0719272 -9.88665e-06 0)
(0.0719471 -9.53901e-06 0)
(0.0720186 -9.3337e-06 0)
(0.0720373 -9.00059e-06 0)
(0.0721048 -8.81151e-06 0)
(0.0721224 -8.49042e-06 0)
(0.0721862 -8.31593e-06 0)
(0.0722028 -8.00615e-06 0)
(0.0722629 -7.84492e-06 0)
(0.0722785 -7.54831e-06 0)
(0.0723353 -7.39986e-06 0)
(0.0723499 -7.12103e-06 0)
(0.0724036 -6.98578e-06 0)
(0.0724172 -6.73038e-06 0)
(0.0724682 -6.60895e-06 0)
(0.0724809 -6.38154e-06 0)
(0.0725293 -6.27309e-06 0)