/*--------------------------------*- C++ -*----------------------------------*\
| =========                 |                                                 |
| \\      /  F ield         | OpenFOAM: The Open Source CFD Toolbox           |
|  \\    /   O peration     | Version:  2412                                  |
|   \\  /    A nd           | Website:  www.openfoam.com                      |
|    \\/     M anipulation  |                                                 |
\*---------------------------------------------------------------------------*/
FoamFile
{
    version     2.0;
    format      ascii;
    arch        "LSB;label=32;scalar=64";
    class       volScalarField;
    location    "800";
    object      p;
}
// * * * * * * * * * * * * * * * * * * * * * * * * * * * * * * * * * * * * * //

dimensions      [0 2 -2 0 0 0 0];

internalField   nonuniform List<scalar> 
8000
(
0.0513803
0.0513614
0.0513362
0.0512618
0.0510927
0.0509162
0.0507034
0.0504751
0.0502009
0.0499147
0.0495906
0.0492586
0.048892
0.0485201
0.0481183
0.0477122
0.0472822
0.0468459
0.0463941
0.0459303
0.0454626
0.0449731
0.0444947
0.0439811
0.0434964
0.0429603
0.0424731
0.0419162
0.0414297
0.0408545
0.040371
0.0397808
0.0393022
0.0387009
0.0382287
0.037621
0.0371559
0.0365469
0.0360896
0.0354847
0.0350355
0.0344402
0.0339995
0.0334188
0.0329874
0.0324259
0.0320047
0.0314661
0.0310567
0.0305435
0.0301473
0.0296611
0.0292795
0.0288207
0.0284546
0.0280229
0.0276727
0.0272671
0.0269327
0.0265519
0.026233
0.0258756
0.0255713
0.0252359
0.0249454
0.0246301
0.0243522
0.024055
0.0237883
0.023507
0.0232501
0.0229825
0.0227341
0.0224782
0.0222373
0.0219913
0.021757
0.0215196
0.021291
0.0210608
0.0208372
0.0206129
0.0203935
0.0201741
0.0199582
0.0197427
0.0195299
0.0193177
0.0191075
0.0188982
0.0186905
0.0184837
0.0182782
0.0180737
0.0178703
0.0176679
0.0174663
0.0172657
0.0170659
0.0168671
0.016669
0.0164718
0.0162753
0.0160799
0.015885
0.0156911
0.0154979
0.0153055
0.0151138
0.014923
0.0147327
0.0145434
0.0143546
0.0141667
0.0139794
0.0137929
0.013607
0.0134219
0.0132373
0.0130535
0.0128702
0.0126878
0.0125058
0.0123246
0.0121438
0.011964
0.0117844
0.0116058
0.0114274
0.01125
0.0110728
0.0108966
0.0107205
0.0105455
0.0103705
0.0101966
0.0100228
0.00985001
0.00967733
0.00950562
0.00933405
0.00916343
0.00899296
0.00882342
0.00865403
0.00848558
0.00831725
0.00814987
0.00798259
0.00781628
0.00765004
0.00748481
0.00731961
0.00715546
0.00699131
0.00682824
0.00666514
0.00650315
0.0063411
0.00618017
0.00601917
0.00585928
0.0056993
0.00554043
0.00538144
0.00522357
0.00506555
0.00490867
0.00475159
0.00459568
0.00443952
0.00428455
0.00412931
0.00397527
0.00382094
0.0036678
0.0035144
0.00336211
0.00320963
0.00305816
0.00290654
0.00275585
0.002605
0.00245501
0.00230483
0.00215544
0.00200578
0.00185689
0.00170757
0.00155906
0.00140992
0.00126169
0.00111257
0.00096452
0.000815371
0.000667402
0.000518247
0.000370325
0.00022136
7.37384e-05
0.0514074
0.0513696
0.0513403
0.0512686
0.0511018
0.0509243
0.0507111
0.0504818
0.0502075
0.0499204
0.0495961
0.0492633
0.0488964
0.048524
0.0481218
0.0477155
0.0472851
0.0468487
0.0463965
0.0459327
0.0454645
0.0449752
0.0444963
0.0439828
0.0434977
0.0429617
0.0424741
0.0419173
0.0414303
0.0408552
0.0403714
0.0397811
0.0393023
0.0387009
0.0382285
0.0376205
0.0371553
0.036546
0.0360887
0.0354835
0.0350343
0.0344386
0.0339979
0.0334169
0.0329854
0.0324237
0.0320025
0.0314637
0.0310541
0.030541
0.0301446
0.0296585
0.0292767
0.0288181
0.0284518
0.0280202
0.02767
0.0272645
0.0269302
0.0265494
0.0262306
0.0258733
0.0255691
0.0252337
0.0249433
0.0246281
0.0243503
0.0240532
0.0237866
0.0235055
0.0232487
0.0229811
0.0227329
0.022477
0.0222363
0.0219904
0.0217561
0.0215187
0.0212903
0.0210601
0.0208366
0.0206123
0.020393
0.0201736
0.0199578
0.0197423
0.0195295
0.0193173
0.0191072
0.0188978
0.0186902
0.0184834
0.0182779
0.0180734
0.01787
0.0176676
0.0174661
0.0172655
0.0170657
0.0168669
0.0166687
0.0164716
0.0162751
0.0160796
0.0158848
0.0156909
0.0154976
0.0153053
0.0151136
0.0149228
0.0147325
0.0145432
0.0143544
0.0141665
0.0139792
0.0137927
0.0136068
0.0134217
0.0132371
0.0130533
0.01287
0.0126876
0.0125056
0.0123245
0.0121437
0.0119638
0.0117842
0.0116056
0.0114273
0.0112499
0.0110726
0.0108964
0.0107204
0.0105453
0.0103704
0.0101965
0.0100227
0.00984985
0.00967717
0.00950547
0.00933389
0.00916328
0.00899281
0.00882327
0.00865388
0.00848543
0.0083171
0.00814972
0.00798244
0.00781613
0.00764989
0.00748466
0.00731946
0.00715531
0.00699116
0.00682809
0.00666499
0.006503
0.00634096
0.00618003
0.00601902
0.00585913
0.00569916
0.00554029
0.0053813
0.00522344
0.00506542
0.00490854
0.00475146
0.00459555
0.00443939
0.00428442
0.00412918
0.00397514
0.00382082
0.00366767
0.00351428
0.00336199
0.00320951
0.00305805
0.00290643
0.00275574
0.00260491
0.00245492
0.00230475
0.00215537
0.00200572
0.00185683
0.00170752
0.00155902
0.00140988
0.00126166
0.00111255
0.000964504
0.000815356
0.000667388
0.000518231
0.000370305
0.000221356
7.37458e-05
0.0514562
0.0513878
0.0513505
0.0512828
0.0511201
0.0509406
0.0507267
0.0504953
0.050221
0.0499319
0.0496073
0.0492728
0.0489055
0.0485319
0.0481292
0.0477221
0.047291
0.0468543
0.0464013
0.0459374
0.0454684
0.0449792
0.0444993
0.0439862
0.0435001
0.0429644
0.0424759
0.0419194
0.0414316
0.0408566
0.0403721
0.0397818
0.0393025
0.0387008
0.038228
0.0376196
0.0371543
0.0365444
0.0360869
0.0354811
0.0350318
0.0344355
0.0339946
0.0334132
0.0329814
0.0324195
0.0319979
0.031459
0.031049
0.030536
0.0301392
0.0296533
0.0292711
0.0288128
0.0284462
0.028015
0.0276645
0.0272593
0.0269249
0.0265445
0.0262257
0.0258687
0.0255646
0.0252295
0.0249392
0.0246243
0.0243466
0.0240498
0.0237834
0.0235024
0.0232458
0.0229785
0.0227305
0.0224748
0.0222342
0.0219884
0.0217543
0.0215171
0.0212887
0.0210587
0.0208353
0.0206111
0.0203919
0.0201726
0.0199568
0.0197414
0.0195287
0.0193165
0.0191065
0.0188972
0.0186895
0.0184828
0.0182773
0.0180729
0.0178695
0.0176671
0.0174656
0.017265
0.0170652
0.0168664
0.0166683
0.0164711
0.0162746
0.0160792
0.0158843
0.0156905
0.0154972
0.0153049
0.0151131
0.0149223
0.0147321
0.0145428
0.014354
0.0141661
0.0139788
0.0137923
0.0136064
0.0134213
0.0132367
0.013053
0.0128697
0.0126872
0.0125052
0.0123241
0.0121433
0.0119635
0.0117839
0.0116053
0.0114269
0.0112495
0.0110723
0.0108961
0.01072
0.010545
0.01037
0.0101961
0.0100223
0.00984953
0.00967686
0.00950515
0.00933358
0.00916297
0.0089925
0.00882296
0.00865358
0.00848512
0.0083168
0.00814941
0.00798214
0.00781583
0.00764959
0.00748436
0.00731916
0.00715501
0.00699086
0.0068278
0.0066647
0.00650271
0.00634066
0.00617974
0.00601874
0.00585885
0.00569887
0.00554001
0.00538103
0.00522317
0.00506515
0.00490828
0.0047512
0.00459529
0.00443913
0.00428417
0.00412892
0.00397488
0.00382056
0.00366742
0.00351403
0.00336175
0.00320927
0.00305782
0.00290621
0.00275553
0.00260471
0.00245474
0.00230458
0.00215522
0.00200558
0.00185672
0.00170743
0.00155894
0.00140982
0.00126161
0.00111251
0.000964473
0.000815328
0.00066736
0.0005182
0.000370267
0.000221326
7.37326e-05
0.0515201
0.0514177
0.0513696
0.051305
0.0511472
0.050965
0.0507501
0.0505158
0.0502411
0.0499494
0.0496241
0.0492874
0.0489193
0.0485441
0.0481404
0.0477323
0.0473
0.0468629
0.0464085
0.0459448
0.0454742
0.0449855
0.044504
0.0439915
0.0435038
0.0429687
0.0424787
0.0419226
0.0414336
0.0408588
0.0403733
0.0397829
0.0393028
0.0387007
0.0382274
0.0376183
0.0371526
0.0365418
0.0360842
0.0354774
0.0350279
0.0344308
0.0339897
0.0334075
0.0329754
0.032413
0.0319909
0.031452
0.0310414
0.0305285
0.030131
0.0296456
0.0292627
0.0288049
0.0284378
0.0280071
0.0276564
0.0272516
0.0269171
0.0265372
0.0262184
0.0258617
0.0255578
0.0252231
0.0249331
0.0246185
0.0243411
0.0240446
0.0237785
0.0234979
0.0232416
0.0229746
0.0227268
0.0224714
0.022231
0.0219855
0.0217516
0.0215146
0.0212865
0.0210566
0.0208333
0.0206094
0.0203903
0.0201711
0.0199554
0.0197401
0.0195275
0.0193154
0.0191054
0.0188961
0.0186885
0.0184818
0.0182765
0.018072
0.0178687
0.0176663
0.0174648
0.0172642
0.0170645
0.0168656
0.0166675
0.0164704
0.0162739
0.0160785
0.0158836
0.0156898
0.0154965
0.0153042
0.0151125
0.0149217
0.0147314
0.0145421
0.0143533
0.0141655
0.0139782
0.0137917
0.0136058
0.0134207
0.0132361
0.0130524
0.0128691
0.0126867
0.0125047
0.0123235
0.0121428
0.0119629
0.0117834
0.0116048
0.0114264
0.011249
0.0110718
0.0108956
0.0107195
0.0105445
0.0103696
0.0101956
0.0100219
0.00984905
0.00967638
0.00950468
0.00933312
0.0091625
0.00899204
0.00882251
0.00865312
0.00848467
0.00831635
0.00814896
0.00798169
0.00781538
0.00764914
0.00748391
0.00731872
0.00715457
0.00699042
0.00682735
0.00666426
0.00650227
0.00634023
0.0061793
0.0060183
0.00585842
0.00569845
0.00553959
0.00538062
0.00522276
0.00506475
0.00490788
0.0047508
0.0045949
0.00443874
0.00428378
0.00412854
0.0039745
0.00382019
0.00366705
0.00351366
0.00336139
0.00320892
0.00305747
0.00290588
0.00275522
0.00260441
0.00245446
0.00230433
0.002155
0.00200539
0.00185655
0.00170728
0.00155883
0.00140973
0.00126154
0.00111245
0.000964428
0.000815286
0.000667322
0.00051815
0.000370208
0.000221245
7.36726e-05
0.0515935
0.0514605
0.0514001
0.0513359
0.0511829
0.0509975
0.0507815
0.0505432
0.0502681
0.049973
0.0496468
0.0493072
0.0489379
0.0485606
0.0481555
0.0477461
0.0473122
0.0468746
0.0464183
0.0459547
0.045482
0.0449938
0.0445102
0.0439984
0.0435086
0.0429743
0.0424823
0.0419269
0.0414361
0.0408616
0.0403747
0.0397842
0.0393031
0.0387005
0.0382265
0.0376165
0.0371505
0.0365385
0.0360807
0.0354725
0.0350229
0.0344245
0.0339832
0.0334
0.0329675
0.0324045
0.0319817
0.0314426
0.0310311
0.0305185
0.0301201
0.0296351
0.0292515
0.0287943
0.0284266
0.0279965
0.0276454
0.0272413
0.0269067
0.0265273
0.0262086
0.0258525
0.0255488
0.0252146
0.0249249
0.0246107
0.0243337
0.0240377
0.023772
0.0234918
0.0232359
0.0229693
0.0227219
0.0224669
0.0222268
0.0219817
0.0217481
0.0215113
0.0212834
0.0210538
0.0208308
0.020607
0.0203881
0.0201691
0.0199536
0.0197384
0.0195259
0.0193139
0.0191039
0.0188948
0.0186872
0.0184806
0.0182753
0.0180709
0.0178676
0.0176652
0.0174638
0.0172632
0.0170635
0.0168647
0.0166666
0.0164695
0.016273
0.0160776
0.0158827
0.0156889
0.0154956
0.0153033
0.0151116
0.0149208
0.0147306
0.0145413
0.0143525
0.0141647
0.0139773
0.0137909
0.013605
0.0134199
0.0132353
0.0130516
0.0128683
0.0126859
0.0125039
0.0123228
0.012142
0.0119622
0.0117827
0.0116041
0.0114257
0.0112483
0.0110711
0.0108949
0.0107189
0.0105438
0.0103689
0.010195
0.0100212
0.00984841
0.00967575
0.00950405
0.00933249
0.00916188
0.00899142
0.00882189
0.00865251
0.00848406
0.00831574
0.00814836
0.00798109
0.00781478
0.00764855
0.00748331
0.00731812
0.00715397
0.00698982
0.00682676
0.00666366
0.00650168
0.00633964
0.00617872
0.00601773
0.00585785
0.00569788
0.00553904
0.00538006
0.00522222
0.00506421
0.00490735
0.00475027
0.00459437
0.00443822
0.00428326
0.00412803
0.00397399
0.00381968
0.00366654
0.00351316
0.0033609
0.00320844
0.00305701
0.00290543
0.0027548
0.00260402
0.0024541
0.002304
0.0021547
0.00200512
0.00185632
0.00170709
0.00155867
0.0014096
0.00126144
0.00111238
0.00096437
0.000815231
0.000667274
0.000518084
0.000370133
0.000221122
7.35715e-05
0.051672
0.0515166
0.0514437
0.0513763
0.0512273
0.0510382
0.0508208
0.0505776
0.0503018
0.0500025
0.049675
0.0493319
0.0489612
0.0485814
0.0481744
0.0477636
0.0473274
0.0468893
0.0464305
0.0459672
0.0454917
0.0450044
0.0445179
0.0440073
0.0435147
0.0429814
0.0424869
0.0419323
0.0414393
0.0408653
0.0403766
0.039786
0.0393036
0.0387002
0.0382255
0.0376142
0.0371478
0.0365342
0.0360762
0.0354663
0.0350166
0.0344165
0.0339749
0.0333905
0.0329574
0.0323937
0.0319701
0.0314308
0.0310183
0.030506
0.0301065
0.0296222
0.0292374
0.0287811
0.0284126
0.0279834
0.0276317
0.0272285
0.0268937
0.026515
0.0261964
0.0258409
0.0255376
0.0252039
0.0249146
0.024601
0.0243245
0.0240291
0.0237638
0.0234842
0.0232288
0.0229628
0.0227158
0.0224613
0.0222216
0.0219768
0.0217436
0.0215072
0.0212796
0.0210503
0.0208275
0.0206041
0.0203854
0.0201666
0.0199513
0.0197363
0.0195238
0.019312
0.0191021
0.0188931
0.0186856
0.0184791
0.0182738
0.0180695
0.0178662
0.0176639
0.0174625
0.017262
0.0170622
0.0168634
0.0166654
0.0164683
0.0162718
0.0160764
0.0158816
0.0156878
0.0154945
0.0153022
0.0151105
0.0149197
0.0147295
0.0145402
0.0143515
0.0141636
0.0139763
0.0137899
0.013604
0.0134189
0.0132344
0.0130507
0.0128674
0.012685
0.012503
0.0123219
0.0121412
0.0119613
0.0117818
0.0116032
0.0114248
0.0112475
0.0110703
0.0108941
0.010718
0.010543
0.0103681
0.0101942
0.0100204
0.00984761
0.00967496
0.00950326
0.00933171
0.00916111
0.00899065
0.00882113
0.00865176
0.00848331
0.00831499
0.00814761
0.00798034
0.00781403
0.0076478
0.00748256
0.00731737
0.00715322
0.00698908
0.00682601
0.00666292
0.00650094
0.00633891
0.006178
0.00601701
0.00585714
0.00569718
0.00553834
0.00537938
0.00522154
0.00506354
0.00490668
0.00474962
0.00459372
0.00443758
0.00428262
0.00412739
0.00397336
0.00381905
0.00366592
0.00351254
0.00336029
0.00320784
0.00305644
0.00290488
0.00275427
0.00260352
0.00245364
0.00230358
0.00215432
0.0020048
0.00185604
0.00170686
0.00155848
0.00140945
0.00126133
0.00111229
0.000964302
0.000815168
0.000667219
0.000518008
0.000370045
0.000220989
7.34682e-05
0.0517545
0.0515854
0.0515002
0.0514261
0.0512804
0.0510869
0.0508682
0.0506191
0.0503423
0.050038
0.049709
0.0493618
0.0489891
0.0486064
0.048197
0.0477847
0.0473456
0.0469071
0.046445
0.0459823
0.0455034
0.0450171
0.0445271
0.0440178
0.0435218
0.0429899
0.0424923
0.0419387
0.0414431
0.0408696
0.0403788
0.039788
0.0393041
0.0386999
0.0382243
0.0376115
0.0371447
0.0365291
0.036071
0.0354589
0.0350091
0.034407
0.0339652
0.0333791
0.0329455
0.0323807
0.0319562
0.0314166
0.0310028
0.0304909
0.03009
0.0296065
0.0292205
0.0287652
0.0283956
0.0279675
0.0276152
0.0272129
0.026878
0.0265001
0.0261817
0.025827
0.0255241
0.0251911
0.0249023
0.0245894
0.0243134
0.0240187
0.023754
0.0234752
0.0232203
0.0229549
0.0227084
0.0224545
0.0222153
0.0219711
0.0217382
0.0215023
0.021275
0.0210461
0.0208237
0.0206006
0.0203821
0.0201636
0.0199485
0.0197337
0.0195214
0.0193097
0.0191
0.018891
0.0186837
0.0184772
0.0182721
0.0180678
0.0178646
0.0176623
0.0174609
0.0172604
0.0170607
0.016862
0.0166639
0.0164668
0.0162704
0.016075
0.0158802
0.0156864
0.0154932
0.0153009
0.0151092
0.0149184
0.0147282
0.0145389
0.0143502
0.0141624
0.0139751
0.0137887
0.0136028
0.0134178
0.0132332
0.0130495
0.0128662
0.0126839
0.0125019
0.0123208
0.0121401
0.0119603
0.0117807
0.0116022
0.0114238
0.0112464
0.0110693
0.0108931
0.010717
0.010542
0.0103671
0.0101932
0.0100195
0.00984665
0.00967401
0.00950231
0.00933078
0.00916017
0.00898973
0.00882021
0.00865084
0.0084824
0.00831409
0.00814671
0.00797944
0.00781313
0.0076469
0.00748166
0.00731648
0.00715232
0.00698818
0.00682512
0.00666203
0.00650006
0.00633803
0.00617712
0.00601614
0.00585629
0.00569633
0.00553751
0.00537855
0.00522073
0.00506273
0.00490589
0.00474883
0.00459294
0.0044368
0.00428185
0.00412662
0.00397259
0.00381829
0.00366516
0.0035118
0.00335956
0.00320713
0.00305574
0.00290421
0.00275364
0.00260293
0.00245309
0.00230308
0.00215387
0.0020044
0.0018557
0.00170658
0.00155825
0.00140927
0.00126118
0.00111218
0.000964221
0.000815097
0.000667157
0.000517927
0.000369947
0.000220856
7.33721e-05
0.05184
0.0516664
0.0515698
0.0514856
0.0513422
0.0511437
0.0509235
0.0506674
0.0503893
0.0500793
0.0497485
0.0493966
0.0490215
0.0486357
0.0482233
0.0478093
0.0473668
0.046928
0.046462
0.046
0.0455169
0.0450322
0.0445378
0.0440304
0.0435302
0.043
0.0424987
0.0419464
0.0414476
0.0408747
0.0403814
0.0397905
0.0393048
0.0386996
0.0382229
0.0376083
0.037141
0.036523
0.0360649
0.0354501
0.0350004
0.0343957
0.0339537
0.0333656
0.0329314
0.0323654
0.0319398
0.0314
0.0309847
0.0304733
0.0300707
0.0295883
0.0292006
0.0287467
0.0283758
0.027949
0.027596
0.0271948
0.0268597
0.0264828
0.0261646
0.0258107
0.0255083
0.0251761
0.0248879
0.0245758
0.0243005
0.0240066
0.0237426
0.0234646
0.0232103
0.0229458
0.0226999
0.0224467
0.022208
0.0219644
0.021732
0.0214966
0.0212697
0.0210413
0.0208192
0.0205965
0.0203784
0.0201602
0.0199453
0.0197307
0.0195186
0.0193071
0.0190975
0.0188887
0.0186815
0.0184751
0.01827
0.0180658
0.0178627
0.0176605
0.0174591
0.0172587
0.017059
0.0168603
0.0166622
0.0164652
0.0162688
0.0160734
0.0158786
0.0156848
0.0154916
0.0152994
0.0151077
0.0149169
0.0147267
0.0145375
0.0143488
0.0141609
0.0139737
0.0137873
0.0136014
0.0134164
0.0132318
0.0130482
0.0128649
0.0126826
0.0125006
0.0123195
0.0121388
0.011959
0.0117795
0.0116009
0.0114226
0.0112452
0.0110681
0.0108919
0.0107159
0.0105408
0.010366
0.0101921
0.0100183
0.00984553
0.00967291
0.00950121
0.00932969
0.00915909
0.00898866
0.00881914
0.00864978
0.00848134
0.00831304
0.00814566
0.0079784
0.00781208
0.00764586
0.00748062
0.00731544
0.00715128
0.00698715
0.00682408
0.006661
0.00649902
0.006337
0.00617611
0.00601513
0.00585529
0.00569535
0.00553654
0.00537759
0.00521978
0.0050618
0.00490496
0.00474792
0.00459203
0.0044359
0.00428095
0.00412573
0.0039717
0.0038174
0.00366428
0.00351093
0.0033587
0.00320629
0.00305493
0.00290343
0.00275289
0.00260223
0.00245244
0.00230249
0.00215335
0.00200394
0.00185531
0.00170625
0.00155798
0.00140906
0.00126103
0.00111206
0.000964138
0.000815025
0.000667096
0.000517843
0.000369849
0.000220706
7.32592e-05
0.0519289
0.0517592
0.0516516
0.0515548
0.0514129
0.0512085
0.0509867
0.0507228
0.050443
0.0501264
0.0497934
0.0494363
0.0490585
0.0486691
0.0482533
0.0478375
0.0473909
0.0469519
0.0464813
0.0460203
0.0455322
0.0450493
0.0445499
0.0440446
0.0435396
0.0430115
0.0425057
0.0419551
0.0414525
0.0408805
0.0403843
0.0397932
0.0393056
0.0386991
0.0382214
0.0376045
0.037137
0.036516
0.0360581
0.03544
0.0349906
0.0343828
0.0339408
0.0333502
0.0329155
0.0323479
0.0319211
0.0313809
0.0309639
0.0304531
0.0300485
0.0295673
0.0291777
0.0287253
0.0283529
0.0279276
0.0275738
0.027174
0.0268386
0.0264629
0.026145
0.0257921
0.0254903
0.0251589
0.0248715
0.0245603
0.0242857
0.0239928
0.0237295
0.0234525
0.023199
0.0229354
0.0226902
0.0224378
0.0221997
0.0219567
0.0217248
0.0214901
0.0212637
0.0210358
0.0208141
0.0205919
0.0203741
0.0201563
0.0199416
0.0197274
0.0195154
0.0193041
0.0190947
0.018886
0.0186789
0.0184727
0.0182677
0.0180636
0.0178606
0.0176584
0.0174571
0.0172567
0.017057
0.0168583
0.0166603
0.0164633
0.0162669
0.0160716
0.0158768
0.015683
0.0154898
0.0152976
0.0151059
0.0149152
0.014725
0.0145358
0.0143471
0.0141593
0.013972
0.0137857
0.0135998
0.0134148
0.0132303
0.0130466
0.0128634
0.0126811
0.0124991
0.0123181
0.0121374
0.0119576
0.0117781
0.0115995
0.0114212
0.0112439
0.0110667
0.0108905
0.0107146
0.0105395
0.0103647
0.0101908
0.0100171
0.00984424
0.00967164
0.00949995
0.00932844
0.00915785
0.00898742
0.00881792
0.00864856
0.00848013
0.00831183
0.00814445
0.0079772
0.00781088
0.00764467
0.00747941
0.00731424
0.00715008
0.00698595
0.00682288
0.00665981
0.00649784
0.00633583
0.00617494
0.00601397
0.00585415
0.00569422
0.00553542
0.00537649
0.00521869
0.00506073
0.0049039
0.00474686
0.00459098
0.00443486
0.00427991
0.0041247
0.00397067
0.00381638
0.00366327
0.00350992
0.00335771
0.00320532
0.00305399
0.00290252
0.00275204
0.00260142
0.0024517
0.00230181
0.00215274
0.00200342
0.00185485
0.00170588
0.00155768
0.00140883
0.00126085
0.00111193
0.000964046
0.000814949
0.000667035
0.000517761
0.000369758
0.000220543
7.31315e-05
0.0520226
0.0518628
0.0517452
0.051634
0.0514926
0.0512812
0.0510578
0.0507849
0.0505031
0.0501792
0.0498437
0.0494808
0.0490997
0.0487066
0.0482868
0.0478693
0.0474178
0.046979
0.0465028
0.0460435
0.0455494
0.045069
0.0445636
0.044061
0.0435502
0.0430248
0.0425138
0.0419652
0.0414582
0.0408872
0.0403877
0.0397964
0.0393066
0.0386986
0.0382198
0.0376002
0.0371326
0.0365079
0.0360505
0.0354283
0.0349796
0.0343678
0.0339262
0.0333325
0.0328973
0.032328
0.0318999
0.0313593
0.0309404
0.0304303
0.0300234
0.0295438
0.029152
0.0287013
0.0283272
0.0279037
0.0275488
0.0271505
0.0268149
0.0264404
0.026123
0.0257711
0.02547
0.0251395
0.024853
0.0245427
0.0242691
0.0239772
0.0237148
0.0234389
0.0231863
0.0229237
0.0226793
0.0224277
0.0221903
0.0219481
0.0217169
0.0214828
0.0212569
0.0210297
0.0208084
0.0205867
0.0203693
0.0201519
0.0199376
0.0197236
0.0195119
0.0193008
0.0190915
0.018883
0.0186761
0.0184699
0.0182651
0.0180611
0.0178582
0.0176561
0.0174548
0.0172544
0.0170548
0.0168561
0.0166582
0.0164612
0.0162648
0.0160695
0.0158748
0.015681
0.0154878
0.0152956
0.015104
0.0149132
0.0147231
0.0145339
0.0143452
0.0141574
0.0139702
0.0137839
0.013598
0.013413
0.0132286
0.0130449
0.0128617
0.0126794
0.0124975
0.0123165
0.0121358
0.011956
0.0117765
0.011598
0.0114197
0.0112423
0.0110652
0.010889
0.0107131
0.010538
0.0103632
0.0101893
0.0100156
0.00984281
0.00967023
0.00949854
0.00932704
0.00915646
0.00898604
0.00881655
0.0086472
0.00847878
0.00831048
0.00814311
0.00797586
0.00780954
0.00764333
0.00747807
0.00731291
0.00714873
0.00698462
0.00682154
0.00665848
0.00649651
0.00633451
0.00617363
0.00601268
0.00585287
0.00569295
0.00553417
0.00537526
0.00521748
0.00505953
0.00490271
0.00474569
0.00458982
0.00443371
0.00427875
0.00412355
0.00396952
0.00381524
0.00366213
0.0035088
0.0033566
0.00320423
0.00305293
0.00290151
0.00275107
0.00260051
0.00245086
0.00230105
0.00215206
0.00200283
0.00185435
0.00170547
0.00155735
0.00140858
0.00126067
0.00111181
0.000963958
0.000814883
0.000666983
0.000517692
0.000369682
0.000220409
7.30333e-05
0.0521248
0.0519756
0.0518497
0.0517231
0.0515813
0.0513618
0.0511366
0.0508539
0.0505697
0.0502376
0.0498992
0.04953
0.0491452
0.0487481
0.0483236
0.0479045
0.0474474
0.0470091
0.0465265
0.0460692
0.0455682
0.0450908
0.0445784
0.0440793
0.0435618
0.0430395
0.0425225
0.0419763
0.0414644
0.0408947
0.0403913
0.0397999
0.0393077
0.038698
0.0382182
0.0375954
0.0371279
0.036499
0.0360424
0.0354155
0.0349677
0.0343514
0.0339102
0.0333129
0.0328773
0.0323058
0.0318763
0.0313351
0.030914
0.0304048
0.0299952
0.0295174
0.0291229
0.0286745
0.0282983
0.0278768
0.0275208
0.0271242
0.0267884
0.0264153
0.0260984
0.0257476
0.0254474
0.025118
0.0248325
0.0245233
0.0242507
0.0239599
0.0236986
0.0234238
0.0231722
0.0229107
0.0226672
0.0224167
0.02218
0.0219387
0.0217081
0.0214747
0.0212494
0.0210229
0.0208021
0.0205811
0.020364
0.0201472
0.0199331
0.0197194
0.0195079
0.0192971
0.019088
0.0188797
0.0186729
0.0184669
0.0182623
0.0180584
0.0178555
0.0176535
0.0174523
0.0172519
0.0170523
0.0168537
0.0166558
0.0164588
0.0162625
0.0160672
0.0158725
0.0156788
0.0154856
0.0152934
0.0151018
0.0149111
0.014721
0.0145317
0.0143431
0.0141553
0.0139682
0.0137818
0.013596
0.0134111
0.0132266
0.013043
0.0128598
0.0126775
0.0124956
0.0123146
0.012134
0.0119542
0.0117748
0.0115962
0.011418
0.0112406
0.0110635
0.0108873
0.0107114
0.0105364
0.0103616
0.0101877
0.010014
0.0098412
0.00966865
0.00949695
0.00932548
0.00915491
0.0089845
0.00881502
0.00864567
0.00847726
0.00830897
0.0081416
0.00797436
0.00780803
0.00764184
0.00747656
0.00731141
0.00714722
0.00698312
0.00682004
0.00665699
0.00649502
0.00633303
0.00617216
0.00601123
0.00585143
0.00569153
0.00553277
0.00537388
0.00521611
0.00505819
0.00490138
0.00474438
0.00458851
0.00443241
0.00427746
0.00412227
0.00396823
0.00381396
0.00366085
0.00350753
0.00335536
0.00320301
0.00305175
0.00290036
0.00274998
0.00259949
0.00244991
0.0023002
0.00215129
0.00200216
0.00185378
0.00170501
0.00155698
0.00140831
0.00126046
0.00111167
0.000963865
0.00081482
0.000666934
0.000517638
0.000369624
0.000220345
7.30073e-05
0.0522385
0.052096
0.0519643
0.0518222
0.0516794
0.0514504
0.0512232
0.0509296
0.0506426
0.0503015
0.0499597
0.0495837
0.0491946
0.0487934
0.0483636
0.0479431
0.0474796
0.0470422
0.0465523
0.0460977
0.0455888
0.0451152
0.0445947
0.0440998
0.0435745
0.0430561
0.0425322
0.041989
0.0414712
0.0409032
0.0403955
0.039804
0.0393091
0.0386974
0.0382165
0.03759
0.0371228
0.0364889
0.0360335
0.0354009
0.0349545
0.0343327
0.0338926
0.0332908
0.0328551
0.032281
0.0318501
0.0313084
0.0308847
0.0303767
0.029964
0.0294885
0.0290909
0.028645
0.0282664
0.0278472
0.0274899
0.0270952
0.0267593
0.0263876
0.0260714
0.0257217
0.0254226
0.0250942
0.0248099
0.0245018
0.0242303
0.0239408
0.0236806
0.0234072
0.0231566
0.0228965
0.022654
0.0224045
0.0221687
0.0219283
0.0216984
0.0214658
0.0212412
0.0210154
0.0207952
0.0205749
0.0203583
0.0201419
0.0199281
0.0197149
0.0195036
0.019293
0.0190842
0.018876
0.0186695
0.0184636
0.0182592
0.0180553
0.0178526
0.0176506
0.0174495
0.0172492
0.0170496
0.016851
0.0166531
0.0164562
0.0162599
0.0160647
0.01587
0.0156763
0.0154832
0.015291
0.0150994
0.0149087
0.0147186
0.0145294
0.0143408
0.0141531
0.013966
0.0137796
0.0135939
0.0134089
0.0132245
0.0130409
0.0128578
0.0126755
0.0124936
0.0123126
0.012132
0.0119523
0.0117729
0.0115943
0.0114161
0.0112387
0.0110617
0.0108855
0.0107096
0.0105345
0.0103598
0.0101859
0.0100123
0.00983944
0.00966692
0.00949523
0.00932377
0.00915322
0.00898282
0.00881336
0.00864401
0.00847562
0.00830733
0.00813996
0.00797273
0.00780639
0.00764021
0.00747492
0.00730978
0.00714558
0.00698149
0.00681839
0.00665537
0.00649339
0.00633142
0.00617056
0.00600964
0.00584987
0.00568999
0.00553125
0.00537238
0.00521463
0.00505673
0.00489993
0.00474295
0.00458709
0.00443101
0.00427605
0.00412086
0.00396683
0.00381256
0.00365946
0.00350615
0.00335398
0.00320166
0.00305044
0.0028991
0.00274878
0.00259836
0.00244887
0.00229925
0.00215045
0.00200144
0.00185317
0.00170452
0.00155659
0.00140803
0.00126026
0.00111155
0.000963787
0.000814778
0.000666902
0.000517608
0.000369586
0.000220345
7.30504e-05
0.0523655
0.0522237
0.0520886
0.0519312
0.0517869
0.051547
0.0513177
0.051012
0.0507221
0.0503708
0.0500254
0.049642
0.0492481
0.0488426
0.0484067
0.0479849
0.0475141
0.0470781
0.0465798
0.0461286
0.0456107
0.0451417
0.044612
0.044122
0.0435879
0.0430742
0.0425423
0.0420027
0.0414784
0.0409124
0.0403998
0.0398084
0.0393104
0.0386967
0.0382147
0.0375841
0.0371176
0.0364778
0.0360243
0.035385
0.0349408
0.0343125
0.0338738
0.0332668
0.0328312
0.0322539
0.0318215
0.031279
0.0308524
0.0303458
0.0299294
0.0294565
0.0290553
0.0286124
0.028231
0.0278146
0.0274558
0.0270632
0.0267273
0.0263571
0.0260418
0.0256933
0.0253956
0.0250682
0.0247853
0.0244783
0.0242081
0.02392
0.0236611
0.0233892
0.0231398
0.0228811
0.0226396
0.0223914
0.0221565
0.021917
0.0216879
0.0214562
0.0212323
0.0210074
0.0207878
0.0205682
0.020352
0.0201363
0.0199228
0.01971
0.019499
0.0192886
0.01908
0.0188721
0.0186658
0.0184601
0.0182558
0.0180521
0.0178495
0.0176475
0.0174465
0.0172462
0.0170467
0.0168481
0.0166502
0.0164534
0.0162571
0.0160619
0.0158673
0.0156736
0.0154805
0.0152883
0.0150967
0.0149061
0.014716
0.0145268
0.0143383
0.0141506
0.0139635
0.0137772
0.0135915
0.0134065
0.0132222
0.0130386
0.0128555
0.0126732
0.0124914
0.0123105
0.0121298
0.0119502
0.0117707
0.0115922
0.011414
0.0112367
0.0110597
0.0108834
0.0107076
0.0105325
0.0103579
0.0101839
0.0100103
0.00983751
0.00966501
0.00949333
0.00932189
0.00915135
0.00898096
0.00881152
0.00864218
0.0084738
0.00830551
0.00813816
0.00797092
0.00780458
0.00763841
0.00747311
0.00730799
0.00714376
0.0069797
0.00681658
0.00665358
0.00649159
0.00632965
0.00616879
0.0060079
0.00584814
0.00568828
0.00552957
0.00537072
0.005213
0.00505512
0.00489834
0.00474138
0.00458552
0.00442946
0.0042745
0.00411932
0.00396528
0.00381102
0.00365791
0.00350462
0.00335247
0.00320017
0.00304899
0.0028977
0.00274745
0.00259711
0.00244771
0.00229821
0.00214952
0.00200064
0.00185249
0.00170398
0.00155616
0.00140772
0.00126004
0.00111142
0.00096371
0.000814743
0.00066688
0.000517588
0.00036956
0.000220352
7.30975e-05
0.0525046
0.05236
0.0522231
0.0520501
0.0519041
0.0516516
0.0514202
0.051101
0.0508079
0.0504454
0.0500961
0.0497045
0.0493055
0.0488953
0.0484529
0.0480298
0.047551
0.0471168
0.0466092
0.0461621
0.045634
0.0451705
0.0446303
0.0441463
0.0436023
0.0430941
0.0425532
0.042018
0.0414862
0.0409227
0.0404046
0.0398134
0.0393121
0.0386959
0.038213
0.0375774
0.037112
0.0364653
0.0360144
0.0353671
0.0349259
0.0342898
0.0338533
0.0332401
0.0328051
0.0322241
0.0317903
0.0312471
0.0308173
0.0303125
0.0298918
0.0294222
0.0290166
0.0285773
0.0281926
0.0277792
0.0274188
0.0270284
0.0266926
0.0263239
0.0260099
0.0256624
0.0253664
0.0250399
0.0247586
0.0244528
0.024184
0.0238974
0.0236398
0.0233697
0.0231216
0.0228645
0.0226241
0.0223772
0.0221433
0.0219049
0.0216766
0.0214459
0.0212227
0.0209987
0.0207798
0.020561
0.0203453
0.0201302
0.0199171
0.0197047
0.019494
0.0192839
0.0190756
0.0188678
0.0186618
0.0184563
0.0182522
0.0180486
0.0178461
0.0176442
0.0174432
0.0172429
0.0170435
0.016845
0.0166472
0.0164503
0.0162541
0.0160589
0.0158644
0.0156707
0.0154776
0.0152855
0.0150939
0.0149033
0.0147132
0.0145241
0.0143356
0.0141479
0.0139609
0.0137746
0.0135889
0.013404
0.0132197
0.0130361
0.012853
0.0126708
0.012489
0.0123081
0.0121275
0.0119479
0.0117685
0.01159
0.0114118
0.0112345
0.0110575
0.0108813
0.0107055
0.0105304
0.0103558
0.0101818
0.0100083
0.00983543
0.00966298
0.00949131
0.00931988
0.00914937
0.00897897
0.00880957
0.00864021
0.00847187
0.00830357
0.00813623
0.007969
0.00780265
0.00763649
0.00747116
0.00730607
0.00714181
0.00697778
0.00681463
0.00665166
0.00648966
0.00632774
0.00616689
0.00600602
0.00584628
0.00568645
0.00552777
0.00536895
0.00521125
0.0050534
0.00489664
0.00473971
0.00458384
0.0044278
0.00427283
0.00411767
0.00396361
0.00380936
0.00365625
0.00350296
0.00335083
0.00319856
0.00304742
0.00289618
0.002746
0.00259576
0.00244646
0.00229708
0.00214851
0.00199979
0.00185176
0.00170342
0.00155572
0.00140742
0.00125984
0.00111132
0.000963665
0.00081474
0.000666889
0.000517586
0.000369548
0.000220317
7.30991e-05
0.0526547
0.0525066
0.0523682
0.0521789
0.052031
0.0517643
0.0515306
0.0511966
0.0509001
0.0505252
0.0501719
0.0497712
0.0493668
0.0489515
0.0485019
0.0480778
0.04759
0.0471582
0.0466401
0.0461979
0.0456584
0.0452013
0.0446495
0.0441724
0.0436171
0.0431153
0.0425644
0.0420344
0.0414942
0.0409338
0.0404095
0.0398187
0.0393139
0.038695
0.0382113
0.0375701
0.0371064
0.0364517
0.0360042
0.0353477
0.0349104
0.0342652
0.0338319