/*--------------------------------*- C++ -*----------------------------------*\
| =========                 |                                                 |
| \\      /  F ield         | OpenFOAM: The Open Source CFD Toolbox           |
|  \\    /   O peration     | Version:  2412                                  |
|   \\  /    A nd           | Website:  www.openfoam.com                      |
|    \\/     M anipulation  |                                                 |
\*---------------------------------------------------------------------------*/
FoamFile
{
    version     2.0;
    format      ascii;
    arch        "LSB;label=32;scalar=64";
    class       surfaceScalarField;
    location    "800";
    object      phi;
}
// * * * * * * * * * * * * * * * * * * * * * * * * * * * * * * * * * * * * * //

dimensions      [0 3 -1 0 0 0 0];

oriented        oriented;

internalField   nonuniform List<scalar> 
15760
(
2.5001e-07
-1.01519e-11
2.50066e-07
-5.56195e-11
2.50044e-07
2.18361e-11
2.50144e-07
-9.94991e-11
2.50106e-07
3.79717e-11
2.50251e-07
-1.45105e-10
2.50202e-07
4.87793e-11
2.50385e-07
-1.82292e-10
2.5033e-07
5.49281e-11
2.5054e-07
-2.09901e-10
2.50485e-07
5.49626e-11
2.50712e-07
-2.27249e-10
2.50664e-07
4.85588e-11
2.50898e-07
-2.34825e-10
2.50862e-07
3.60295e-11
2.51096e-07
-2.33964e-10
2.51078e-07
1.84429e-11
2.51305e-07
-2.26576e-10
2.51307e-07
-2.60242e-12
2.51522e-07
-2.14835e-10
2.51547e-07
-2.52585e-11
2.51748e-07
-2.00862e-10
2.51796e-07
-4.77339e-11
2.51982e-07
-1.86464e-10
2.52051e-07
-6.8551e-11
2.52224e-07
-1.7297e-10
2.52311e-07
-8.67014e-11
2.52472e-07
-1.6117e-10
2.52574e-07
-1.01679e-10
2.52725e-07
-1.51365e-10
2.52838e-07
-1.13404e-10
2.52982e-07
-1.43486e-10
2.53104e-07
-1.2208e-10
2.53241e-07
-1.37239e-10
2.53369e-07
-1.28041e-10
2.53501e-07
-1.32238e-10
2.53633e-07
-1.31627e-10
2.53761e-07
-1.281e-10
2.53894e-07
-1.33121e-10
2.54019e-07
-1.24491e-10
2.54152e-07
-1.32745e-10
2.54273e-07
-1.21137e-10
2.54403e-07
-1.30696e-10
2.54521e-07
-1.17822e-10
2.54648e-07
-1.27183e-10
2.54763e-07
-1.14387e-10
2.54885e-07
-1.2246e-10
2.54996e-07
-1.10736e-10
2.55113e-07
-1.16818e-10
2.5522e-07
-1.06836e-10
2.5533e-07
-1.10568e-10
2.55433e-07
-1.02717e-10
2.55537e-07
-1.04012e-10
2.55635e-07
-9.84554e-11
2.55733e-07
-9.7414e-11
2.55827e-07
-9.41421e-11
2.55918e-07
-9.09966e-11
2.56008e-07
-8.98506e-11
2.56093e-07
-8.49348e-11
2.56178e-07
-8.56203e-11
2.56258e-07
-7.93602e-11
2.56339e-07
-8.14576e-11
2.56413e-07
-7.43579e-11
2.56491e-07
-7.73584e-11
2.56561e-07
-6.9966e-11
2.56634e-07
-7.3337e-11
2.567e-07
-6.6174e-11
2.5677e-07
-6.94401e-11
2.56833e-07
-6.29281e-11
2.56899e-07
-6.57428e-11
2.56959e-07
-6.01495e-11
2.57021e-07
-6.23328e-11
2.57079e-07
-5.7759e-11
2.57138e-07
-5.92868e-11
2.57194e-07
-5.56953e-11
2.57251e-07
-5.66548e-11
2.57305e-07
-5.39243e-11
2.57359e-07
-5.44544e-11
2.57411e-07
-5.24342e-11
2.57464e-07
-5.26749e-11
2.57515e-07
-5.12201e-11
2.57567e-07
-5.12829e-11
2.57617e-07
-5.02688e-11
2.57667e-07
-5.02296e-11
2.57717e-07
-4.95517e-11
2.57766e-07
-4.94574e-11
2.57815e-07
-4.90269e-11
2.57864e-07
-4.89055e-11
2.57913e-07
-4.86468e-11
2.57961e-07
-4.85147e-11
2.5801e-07
-4.83652e-11
2.58058e-07
-4.82299e-11
2.58106e-07
-4.81409e-11
2.58154e-07
-4.80034e-11
2.58202e-07
-4.79396e-11
2.5825e-07
-4.77966e-11
2.58298e-07
-4.77349e-11
2.58345e-07
-4.75817e-11
2.58393e-07
-4.75088e-11
2.5844e-07
-4.73424e-11
2.58487e-07
-4.72529e-11
2.58534e-07
-4.70727e-11
2.58581e-07
-4.6967e-11
2.58628e-07
-4.67745e-11
2.58675e-07
-4.66567e-11
2.58721e-07
-4.64548e-11
2.58767e-07
-4.63306e-11
2.58814e-07
-4.61225e-11
2.5886e-07
-4.59978e-11
2.58905e-07
-4.57873e-11
2.58951e-07
-4.56671e-11
2.58996e-07
-4.54577e-11
2.59042e-07
-4.53456e-11
2.59087e-07
-4.51406e-11
2.59132e-07
-4.50387e-11
2.59177e-07
-4.48405e-11
2.59221e-07
-4.47494e-11
2.59266e-07
-4.45595e-11
2.5931e-07
-4.44784e-11
2.59355e-07
-4.4297e-11
2.59399e-07
-4.42245e-11
2.59443e-07
-4.40505e-11
2.59487e-07
-4.39844e-11
2.59531e-07
-4.38163e-11
2.59574e-07
-4.37537e-11
2.59618e-07
-4.35906e-11
2.59662e-07
-4.35275e-11
2.59705e-07
-4.33701e-11
2.59748e-07
-4.33015e-11
2.59791e-07
-4.31525e-11
2.59834e-07
-4.30728e-11
2.59877e-07
-4.29361e-11
2.5992e-07
-4.28406e-11
2.59963e-07
-4.27194e-11
2.60005e-07
-4.26058e-11
2.60048e-07
-4.25003e-11
2.6009e-07
-4.23706e-11
2.60133e-07
-4.22764e-11
2.60175e-07
-4.21372e-11
2.60217e-07
-4.20447e-11
2.60259e-07
-4.19064e-11
2.603e-07
-4.1803e-11
2.60342e-07
-4.16768e-11
2.60384e-07
-4.15504e-11
2.60425e-07
-4.14443e-11
2.60466e-07
-4.12873e-11
2.60508e-07
-4.12033e-11
2.60549e-07
-4.10158e-11
2.60589e-07
-4.0948e-11
2.6063e-07
-4.07387e-11
2.60671e-07
-4.06749e-11
2.60711e-07
-4.04588e-11
2.60752e-07
-4.03838e-11
2.60792e-07
-4.01785e-11
2.60832e-07
-4.00793e-11
2.60872e-07
-3.98993e-11
2.60912e-07
-3.97692e-11
2.60951e-07
-3.9622e-11
2.60991e-07
-3.94628e-11
2.6103e-07
-3.93472e-11
2.61069e-07
-3.91678e-11
2.61108e-07
-3.90748e-11
2.61147e-07
-3.88883e-11
2.61186e-07
-3.88043e-11
2.61225e-07
-3.86227e-11
2.61263e-07
-3.8534e-11
2.61301e-07
-3.83643e-11
2.6134e-07
-3.82607e-11
2.61378e-07
-3.81032e-11
2.61416e-07
-3.79804e-11
2.61454e-07
-3.78298e-11
2.61491e-07
-3.76894e-11
2.61529e-07
-3.75384e-11
2.61566e-07
-3.73865e-11
2.61603e-07
-3.72302e-11
2.6164e-07
-3.70746e-11
2.61677e-07
-3.69141e-11
2.61714e-07
-3.67624e-11
2.61751e-07
-3.66056e-11
2.61787e-07
-3.64638e-11
2.61824e-07
-3.63234e-11
2.6186e-07
-3.61952e-11
2.61896e-07
-3.60847e-11
2.61932e-07
-3.59721e-11
2.61968e-07
-3.59004e-11
2.62004e-07
-3.58038e-11
2.62039e-07
-3.57706e-11
2.62075e-07
-3.56899e-11
2.62111e-07
-3.56831e-11
2.62146e-07
-3.56176e-11
2.62182e-07
-3.56155e-11
2.62217e-07
-3.55631e-11
2.62253e-07
-3.55405e-11
2.62289e-07
-3.54967e-11
2.62324e-07
-3.5434e-11
2.62359e-07
-3.53927e-11
2.62395e-07
-3.52822e-11
2.6243e-07
-3.52404e-11
2.62465e-07
-3.50939e-11
-3.50807e-11
2.50015e-07
-2.54958e-11
2.50053e-07
-9.30025e-11
2.50048e-07
2.62002e-11
2.50128e-07
-1.78679e-10
2.50112e-07
5.4087e-11
2.50234e-07
-2.67102e-10
2.50209e-07
7.32299e-11
2.50367e-07
-3.40334e-10
2.50338e-07
8.47763e-11
2.50524e-07
-3.95921e-10
2.50493e-07
8.57206e-11
2.50698e-07
-4.32368e-10
2.50672e-07
7.51195e-11
2.50887e-07
-4.50302e-10
2.5087e-07
5.31961e-11
2.51088e-07
-4.51966e-10
2.51085e-07
2.16275e-11
2.51299e-07
-4.40748e-10
2.51313e-07
-1.6823e-11
2.51519e-07
-4.20628e-10
2.51553e-07
-5.8804e-11
2.51747e-07
-3.95589e-10
2.51801e-07
-1.00952e-10
2.51983e-07
-3.69117e-10
2.52055e-07
-1.40402e-10
2.52226e-07
-3.43855e-10
2.52315e-07
-1.7512e-10
2.52475e-07
-3.21459e-10
2.52578e-07
-2.04001e-10
2.52729e-07
-3.02652e-10
2.52842e-07
-2.26766e-10
2.52986e-07
-2.87423e-10
2.53108e-07
-2.43701e-10
2.53246e-07
-2.75288e-10
2.53373e-07
-2.55368e-10
2.53507e-07
-2.65545e-10
2.53637e-07
-2.62374e-10
2.53767e-07
-2.57458e-10
2.53899e-07
-2.65241e-10
2.54024e-07
-2.50362e-10
2.54156e-07
-2.64394e-10
2.54278e-07
-2.43703e-10
2.54408e-07
-2.60225e-10
2.54527e-07
-2.3705e-10
2.54653e-07
-2.53169e-10
2.54769e-07
-2.30091e-10
2.5489e-07
-2.43743e-10
2.55002e-07
-2.22649e-10
2.55118e-07
-2.32538e-10
2.55226e-07
-2.14681e-10
2.55335e-07
-2.20169e-10
2.55439e-07
-2.06269e-10
2.55542e-07
-2.07217e-10
2.55641e-07
-1.97578e-10
2.55738e-07
-1.94188e-10
2.55833e-07
-1.88797e-10
2.55923e-07
-1.81506e-10
2.56013e-07
-1.80081e-10
2.56098e-07
-1.69513e-10
2.56184e-07
-1.71517e-10
2.56263e-07
-1.58468e-10
2.56345e-07
-1.63117e-10
2.56419e-07
-1.48544e-10
2.56496e-07
-1.5487e-10
2.56566e-07
-1.39815e-10
2.5664e-07
-1.46795e-10
2.56706e-07
-1.32262e-10
2.56775e-07
-1.38973e-10
2.56838e-07
-1.25779e-10
2.56904e-07
-1.31549e-10
2.56964e-07
-1.20221e-10
2.57026e-07
-1.247e-10
2.57084e-07
-1.15439e-10
2.57144e-07
-1.18585e-10
2.57199e-07
-1.11318e-10
2.57256e-07
-1.1331e-10
2.5731e-07
-1.07793e-10
2.57364e-07
-1.08909e-10
2.57417e-07
-1.04834e-10
2.57469e-07
-1.05357e-10
2.57521e-07
-1.02425e-10
2.57572e-07
-1.02581e-10
2.57622e-07
-1.00536e-10
2.57672e-07
-1.0048e-10
2.57722e-07
-9.91104e-11
2.57772e-07
-9.89381e-11
2.57821e-07
-9.80669e-11
2.5787e-07
-9.78361e-11
2.57918e-07
-9.73127e-11
2.57967e-07
-9.70563e-11
2.58015e-07
-9.67549e-11
2.58063e-07
-9.64889e-11
2.58112e-07
-9.63099e-11
2.5816e-07
-9.60369e-11
2.58208e-07
-9.59078e-11
2.58255e-07
-9.56221e-11
2.58303e-07
-9.54959e-11
2.58351e-07
-9.51894e-11
2.58398e-07
-9.504e-11
2.58446e-07
-9.47074e-11
2.58493e-07
-9.45249e-11
2.5854e-07
-9.41652e-11
2.58587e-07
-9.39512e-11
2.58634e-07
-9.35673e-11
2.5868e-07
-9.333e-11
2.58727e-07
-9.29274e-11
2.58773e-07
-9.26781e-11
2.58819e-07
-9.22633e-11
2.58865e-07
-9.20136e-11
2.58911e-07
-9.15938e-11
2.58957e-07
-9.13533e-11
2.59002e-07
-9.09358e-11
2.59048e-07
-9.07117e-11
2.59093e-07
-9.03028e-11
2.59138e-07
-9.0099e-11
2.59183e-07
-8.97039e-11
2.59227e-07
-8.95213e-11
2.59272e-07
-8.9143e-11
2.59316e-07
-8.89803e-11
2.59361e-07
-8.86191e-11
2.59405e-07
-8.84735e-11
2.59449e-07
-8.81271e-11
2.59493e-07
-8.79945e-11
2.59537e-07
-8.76597e-11
2.59581e-07
-8.75346e-11
2.59624e-07
-8.72093e-11
2.59668e-07
-8.70838e-11
2.59711e-07
-8.67692e-11
2.59754e-07
-8.66333e-11
2.59798e-07
-8.63346e-11
2.59841e-07
-8.6177e-11
2.59884e-07
-8.59021e-11
2.59927e-07
-8.57131e-11
2.59969e-07
-8.54688e-11
2.60012e-07
-8.52436e-11
2.60054e-07
-8.50309e-11
2.60097e-07
-8.47729e-11
2.60139e-07
-8.45834e-11
2.60181e-07
-8.43056e-11
2.60223e-07
-8.41207e-11
2.60265e-07
-8.38436e-11
2.60307e-07
-8.3638e-11
2.60349e-07
-8.3384e-11
2.6039e-07
-8.3133e-11
2.60432e-07
-8.2919e-11
2.60473e-07
-8.26066e-11
2.60514e-07
-8.24372e-11
2.60555e-07
-8.20628e-11
2.60596e-07
-8.19271e-11
2.60637e-07
-8.15075e-11
2.60678e-07
-8.13814e-11
2.60718e-07
-8.09467e-11
2.60759e-07
-8.07997e-11
2.60799e-07
-8.03852e-11
2.60839e-07
-8.01906e-11
2.60879e-07
-7.98264e-11
2.60919e-07
-7.95696e-11
2.60958e-07
-7.92718e-11
2.60998e-07
-7.89552e-11
2.61037e-07
-7.87223e-11
2.61076e-07
-7.83637e-11
2.61115e-07
-7.81778e-11
2.61154e-07
-7.78032e-11
2.61193e-07
-7.76369e-11
2.61232e-07
-7.72712e-11
2.6127e-07
-7.70958e-11
2.61309e-07
-7.67545e-11
2.61347e-07
-7.65486e-11
2.61385e-07
-7.6233e-11
2.61423e-07
-7.59871e-11
2.61461e-07
-7.5687e-11
2.61499e-07
-7.54043e-11
2.61536e-07
-7.51046e-11
2.61574e-07
-7.47979e-11
2.61611e-07
-7.44876e-11
2.61648e-07
-7.41739e-11
2.61685e-07
-7.38539e-11
2.61722e-07
-7.35497e-11
2.61758e-07
-7.32352e-11
2.61795e-07
-7.29524e-11
2.61831e-07
-7.26694e-11
2.61868e-07
-7.24151e-11
2.61904e-07
-7.21915e-11
2.6194e-07
-7.19684e-11
2.61976e-07
-7.18232e-11
2.62011e-07
-7.16314e-11
2.62047e-07
-7.15647e-11
2.62083e-07
-7.14033e-11
2.62119e-07
-7.13915e-11
2.62154e-07
-7.12586e-11
2.6219e-07
-7.12584e-11
2.62225e-07
-7.11495e-11
2.62261e-07
-7.11102e-11
2.62297e-07
-7.10169e-11
2.62332e-07
-7.08979e-11
2.62367e-07
-7.08092e-11
2.62403e-07
-7.05935e-11
2.62438e-07
-7.05013e-11
2.62473e-07
-7.02063e-11
-7.01383e-11
2.50022e-07
-4.75966e-11
2.50035e-07
-1.05109e-10
2.50055e-07
5.69818e-12
2.50106e-07
-2.29356e-10
2.50122e-07
3.82605e-11
2.5021e-07
-3.55493e-10
2.50222e-07
6.14345e-11
2.50344e-07
-4.62176e-10
2.50352e-07
7.65853e-11
2.50502e-07
-5.45406e-10
2.50508e-07
7.9092e-11
2.50679e-07
-6.02783e-10
2.50687e-07
6.70085e-11
2.50871e-07
-6.34626e-10
2.50885e-07
3.99224e-11
2.51076e-07
-6.43496e-10
2.51098e-07
-5.26664e-13
2.51291e-07
-6.33626e-10
2.51326e-07
-5.10415e-11
2.51515e-07
-6.1023e-10
2.51564e-07
-1.07292e-10
2.51747e-07
-5.78728e-10
2.5181e-07
-1.64702e-10
2.51985e-07
-5.44028e-10
2.52064e-07
-2.19198e-10
2.5223e-07
-5.10004e-10
2.52323e-07
-2.67737e-10
2.52481e-07
-4.79222e-10
2.52585e-07
-3.08525e-10
2.52735e-07
-4.52954e-10
2.5285e-07
-3.40927e-10
2.52994e-07
-4.31403e-10
2.53115e-07
-3.65148e-10
2.53254e-07
-4.14052e-10
2.5338e-07
-3.81848e-10
2.53515e-07
-4.00011e-10
2.53644e-07
-3.91799e-10
2.53775e-07
-3.88288e-10
2.53906e-07
-3.95709e-10
2.54033e-07
-3.77947e-10
2.54163e-07
-3.9418e-10
2.54288e-07
-3.68177e-10
2.54415e-07
-3.87788e-10
2.54536e-07
-3.58319e-10
2.5466e-07
-3.7718e-10
2.54778e-07
-3.4789e-10
2.54898e-07
-3.63132e-10
2.55012e-07
-3.36605e-10
2.55126e-07
-3.4652e-10
2.55235e-07
-3.24405e-10
2.55343e-07
-3.28246e-10
2.55448e-07
-3.11439e-10
2.5555e-07
-3.09152e-10
2.55651e-07
-2.98002e-10
2.55746e-07
-2.89964e-10
2.55842e-07
-2.84431e-10
2.55932e-07
-2.71276e-10
2.56023e-07
-2.70999e-10
2.56107e-07
-2.53568e-10
2.56193e-07
-2.57857e-10
2.56272e-07
-2.3721e-10
2.56354e-07
-2.4503e-10
2.56428e-07
-2.2246e-10
2.56505e-07
-2.32492e-10
2.56575e-07
-2.0945e-10
2.56649e-07
-2.20263e-10
2.56714e-07
-1.98173e-10
2.56784e-07
-2.08456e-10
2.56847e-07
-1.88493e-10
2.56913e-07
-1.97281e-10
2.56973e-07
-1.80197e-10
2.57035e-07
-1.86994e-10
2.57093e-07
-1.73059e-10
2.57152e-07
-1.77823e-10
2.57207e-07
-1.66903e-10
2.57264e-07
-1.69916e-10
2.57318e-07
-1.6163e-10
2.57372e-07
-1.63324e-10
2.57425e-07
-1.57201e-10
2.57477e-07
-1.58006e-10
2.57529e-07
-1.536e-10
2.5758e-07
-1.53856e-10
2.5763e-07
-1.50784e-10
2.5768e-07
-1.5072e-10
2.5773e-07
-1.48666e-10
2.57779e-07
-1.48424e-10
2.57829e-07
-1.4712e-10
2.57877e-07
-1.46784e-10
2.57926e-07
-1.46002e-10
2.57975e-07
-1.45623e-10
2.58023e-07
-1.45173e-10
2.58071e-07
-1.44776e-10
2.5812e-07
-1.44507e-10
2.58168e-07
-1.44099e-10
2.58216e-07
-1.43904e-10
2.58264e-07
-1.43476e-10
2.58311e-07
-1.43285e-10
2.58359e-07
-1.42826e-10
2.58407e-07
-1.42599e-10
2.58454e-07
-1.42101e-10
2.58501e-07
-1.41824e-10
2.58548e-07
-1.41285e-10
2.58595e-07
-1.4096e-10
2.58642e-07
-1.40385e-10
2.58689e-07
-1.40025e-10
2.58735e-07
-1.39422e-10
2.58782e-07
-1.39045e-10
2.58828e-07
-1.38424e-10
2.58874e-07
-1.38048e-10
2.5892e-07
-1.37419e-10
2.58965e-07
-1.37057e-10
2.59011e-07
-1.36432e-10
2.59056e-07
-1.36096e-10
2.59101e-07
-1.35483e-10
2.59146e-07
-1.35179e-10
2.59191e-07
-1.34587e-10
2.59236e-07
-1.34314e-10
2.59281e-07
-1.33748e-10
2.59325e-07
-1.33504e-10
2.59369e-07
-1.32964e-10
2.59414e-07
-1.32745e-10
2.59458e-07
-1.32228e-10
2.59502e-07
-1.32028e-10
2.59546e-07
-1.31528e-10
2.59589e-07
-1.31339e-10
2.59633e-07
-1.30853e-10
2.59677e-07
-1.30664e-10
2.5972e-07
-1.30193e-10
2.59763e-07
-1.2999e-10
2.59807e-07
-1.2954e-10
2.5985e-07
-1.29306e-10
2.59893e-07
-1.28891e-10
2.59936e-07
-1.28611e-10
2.59978e-07
-1.28242e-10
2.60021e-07
-1.27907e-10
2.60064e-07
-1.27586e-10
2.60106e-07
-1.272e-10
2.60148e-07
-1.26915e-10
2.6019e-07
-1.26499e-10
2.60233e-07
-1.26222e-10
2.60274e-07
-1.25805e-10
2.60316e-07
-1.25499e-10
2.60358e-07
-1.25115e-10
2.604e-07
-1.24741e-10
2.60441e-07
-1.24418e-10
2.60482e-07
-1.23951e-10
2.60524e-07
-1.23696e-10
2.60565e-07
-1.23134e-10
2.60606e-07
-1.22932e-10
2.60647e-07
-1.22299e-10
2.60687e-07
-1.22113e-10
2.60728e-07
-1.21457e-10
2.60768e-07
-1.21239e-10
2.60808e-07
-1.20613e-10
2.60849e-07
-1.20324e-10
2.60888e-07
-1.19774e-10
2.60928e-07
-1.1939e-10
2.60968e-07
-1.18942e-10
2.61007e-07
-1.18466e-10
2.61047e-07
-1.18117e-10
2.61086e-07
-1.17577e-10
2.61125e-07
-1.17301e-10
2.61164e-07
-1.16735e-10
2.61203e-07
-1.16489e-10
2.61242e-07
-1.15938e-10
2.6128e-07
-1.15677e-10
2.61319e-07
-1.15164e-10
2.61357e-07
-1.14856e-10
2.61395e-07
-1.14382e-10
2.61433e-07
-1.14012e-10
2.61471e-07
-1.13563e-10
2.61509e-07
-1.13136e-10
2.61546e-07
-1.12688e-10
2.61584e-07
-1.12225e-10
2.61621e-07
-1.11759e-10
2.61658e-07
-1.11286e-10
2.61695e-07
-1.10805e-10
2.61732e-07
-1.10347e-10
2.61768e-07
-1.09872e-10
2.61805e-07
-1.09448e-10
2.61841e-07
-1.09019e-10
2.61878e-07
-1.08639e-10
2.61914e-07
-1.083e-10
2.6195e-07
-1.07967e-10
2.61986e-07
-1.07748e-10
2.62021e-07
-1.07461e-10
2.62057e-07
-1.07361e-10
2.62093e-07
-1.0712e-10
2.62129e-07
-1.07105e-10
2.62164e-07
-1.06905e-10
2.622e-07
-1.06909e-10
2.62236e-07
-1.06744e-10
2.62271e-07
-1.06689e-10
2.62307e-07
-1.06547e-10
2.62342e-07
-1.0637e-10
2.62378e-07
-1.06234e-10
2.62413e-07
-1.05911e-10
2.62448e-07
-1.05764e-10
2.62483e-07
-1.05316e-10
-1.05154e-10
2.50031e-07
-7.90142e-11
2.50019e-07
-9.25275e-11
2.50063e-07
-3.86397e-11
2.50086e-07
-2.52111e-10
2.50133e-07
-8.33549e-12
2.50189e-07
-4.11243e-10
2.50235e-07
1.47067e-11
2.50322e-07
-5.48899e-10
2.50367e-07
3.16667e-11
2.50481e-07
-6.59371e-10
2.50524e-07
3.62444e-11
2.5066e-07
-7.39298e-10
2.50702e-07
2.51331e-11
2.50856e-07
-7.88286e-10
2.50899e-07
-3.20964e-12
2.51065e-07
-8.08688e-10
2.51112e-07
-4.77693e-11
2.51283e-07
-8.05011e-10
2.51338e-07
-1.05291e-10
2.51511e-07
-7.83191e-10
2.51574e-07
-1.7095e-10
2.51745e-07
-7.4968e-10
2.5182e-07
-2.39299e-10
2.51987e-07
-7.10567e-10
2.52073e-07
-3.05239e-10
2.52234e-07
-6.7086e-10
2.52331e-07
-3.64765e-10
2.52486e-07
-6.34064e-10
2.52592e-07
-4.1534e-10
2.52742e-07
-6.02102e-10
2.52857e-07
-4.55859e-10
2.53001e-07
-5.75528e-10
2.53122e-07
-4.86313e-10
2.53262e-07
-5.53919e-10
2.53387e-07
-5.07317e-10
2.53524e-07
-5.36296e-10
2.53651e-07
-5.197e-10
2.53784e-07
-5.21471e-10
2.53913e-07
-5.24262e-10
2.54043e-07
-5.08261e-10
2.54171e-07
-5.21735e-10
2.54298e-07
-4.95604e-10
2.54423e-07
-5.12868e-10
2.54547e-07
-4.82618e-10
2.54669e-07
-4.98547e-10
2.54789e-07
-4.68649e-10
2.54906e-07
-4.79835e-10
2.55023e-07
-4.53326e-10
2.55134e-07
-4.57917e-10
2.55247e-07
-4.36595e-10
2.55352e-07
-4.3398e-10
2.5546e-07
-4.18706e-10
2.5556e-07
-4.09091e-10
2.55662e-07
-4.00114e-10
2.55756e-07
-3.84135e-10
2.55853e-07
-3.81338e-10
2.55941e-07
-3.59828e-10
2.56033e-07
-3.62809e-10
2.56116e-07
-3.36751e-10
2.56203e-07
-3.44772e-10
2.56282e-07
-3.15367e-10
2.56364e-07
-3.2728e-10
2.56437e-07
-2.96016e-10
2.56515e-07
-3.10293e-10
2.56585e-07
-2.78884e-10
2.56658e-07
-2.93807e-10
2.56724e-07
-2.6398e-10
2.56793e-07
-2.77945e-10
2.56856e-07
-2.51144e-10
2.56922e-07
-2.62964e-10
2.56982e-07
-2.40114e-10
2.57044e-07
-2.49198e-10
2.57101e-07
-2.30611e-10
2.57161e-07
-2.3695e-10
2.57216e-07
-2.22416e-10
2.57273e-07
-2.26414e-10
2.57327e-07
-2.15403e-10
2.57381e-07
-2.17651e-10
2.57433e-07
-2.09521e-10
2.57486e-07
-2.10597e-10
2.57537e-07
-2.04744e-10
2.57588e-07
-2.05097e-10
2.57638e-07
-2.01013e-10
2.57689e-07
-2.00942e-10
2.57738e-07
-1.98209e-10
2.57788e-07
-1.97899e-10
2.57837e-07
-1.96166e-10
2.57886e-07
-1.95727e-10
2.57934e-07
-1.94691e-10
2.57983e-07
-1.9419e-10
2.58031e-07
-1.93597e-10
2.5808e-07
-1.9307e-10
2.58128e-07
-1.92716e-10
2.58176e-07
-1.92173e-10
2.58224e-07
-1.91913e-10
2.58272e-07
-1.91343e-10
2.5832e-07
-1.91084e-10
2.58367e-07
-1.90472e-10
2.58415e-07
-1.90164e-10
2.58462e-07
-1.89499e-10
2.5851e-07
-1.89124e-10
2.58557e-07
-1.88405e-10
2.58604e-07
-1.87967e-10
2.5865e-07
-1.872e-10
2.58697e-07
-1.86717e-10
2.58744e-07
-1.85913e-10
2.5879e-07
-1.85408e-10
2.58836e-07
-1.8458e-10
2.58882e-07
-1.84077e-10
2.58928e-07
-1.83239e-10
2.58974e-07
-1.82757e-10
2.59019e-07
-1.81923e-10
2.59064e-07
-1.81475e-10
2.5911e-07
-1.80659e-10
2.59155e-07
-1.80253e-10
2.592e-07
-1.79464e-10
2.59244e-07
-1.791e-10
2.59289e-07
-1.78346e-10
2.59333e-07
-1.7802e-10
2.59378e-07
-1.77302e-10
2.59422e-07
-1.77009e-10
2.59466e-07
-1.76321e-10
2.5951e-07
-1.76053e-10
2.59554e-07
-1.75389e-10
2.59598e-07
-1.75135e-10
2.59641e-07
-1.74489e-10
2.59685e-07
-1.74237e-10
2.59728e-07
-1.73608e-10
2.59772e-07
-1.73338e-10
2.59815e-07
-1.72738e-10
2.59858e-07
-1.72428e-10
2.59901e-07
-1.71872e-10
2.59944e-07
-1.715e-10
2.59986e-07
-1.71005e-10
2.60029e-07
-1.7056e-10
2.60072e-07
-1.70129e-10
2.60114e-07
-1.69616e-10
2.60156e-07
-1.69236e-10
2.60199e-07
-1.68679e-10
2.60241e-07
-1.68312e-10
2.60283e-07
-1.67753e-10
2.60324e-07
-1.67347e-10
2.60366e-07
-1.66833e-10
2.60408e-07
-1.66337e-10
2.60449e-07
-1.65904e-10
2.6049e-07
-1.65282e-10
2.60532e-07
-1.64942e-10
2.60573e-07
-1.64191e-10
2.60614e-07
-1.63923e-10
2.60654e-07
-1.63077e-10
2.60695e-07
-1.62831e-10
2.60736e-07
-1.61951e-10
2.60776e-07
-1.61665e-10
2.60816e-07
-1.60825e-10
2.60856e-07
-1.60441e-10
2.60896e-07
-1.59705e-10
2.60936e-07
-1.59192e-10
2.60976e-07
-1.58594e-10
2.61015e-07
-1.57956e-10
2.61055e-07
-1.57493e-10
2.61094e-07
-1.56767e-10
2.61133e-07
-1.56403e-10
2.61172e-07
-1.55643e-10
2.61211e-07
-1.55319e-10
2.61249e-07
-1.54579e-10
2.61288e-07
-1.54235e-10
2.61326e-07
-1.53547e-10
2.61364e-07
-1.53138e-10
2.61403e-07
-1.52506e-10
2.61441e-07
-1.52012e-10
2.61478e-07
-1.51414e-10
2.61516e-07
-1.50842e-10
2.61554e-07
-1.50245e-10
2.61591e-07
-1.49624e-10
2.61628e-07
-1.49002e-10
2.61665e-07
-1.48369e-10
2.61702e-07
-1.47723e-10
2.61739e-07
-1.47111e-10
2.61776e-07
-1.46471e-10
2.61812e-07
-1.45906e-10
2.61848e-07
-1.45327e-10
2.61885e-07
-1.44821e-10
2.61921e-07
-1.44363e-10
2.61957e-07
-1.43919e-10
2.61993e-07
-1.43624e-10
2.62028e-07
-1.43242e-10
2.62064e-07
-1.43109e-10
2.621e-07
-1.42788e-10
2.62135e-07
-1.4277e-10
2.62171e-07
-1.42505e-10
2.62207e-07
-1.42512e-10
2.62242e-07
-1.42295e-10
2.62278e-07
-1.42222e-10
2.62313e-07
-1.42035e-10
2.62349e-07
-1.41798e-10
2.62384e-07
-1.41618e-10
2.62419e-07
-1.41183e-10
2.62454e-07
-1.40983e-10
2.6249e-07
-1.40377e-10
-1.40126e-10
2.50041e-07
-1.19571e-10
2.5001e-07
-6.12814e-11
2.50072e-07
-1.005e-10
2.50074e-07
-2.54153e-10
2.50143e-07
-7.72456e-11
2.50175e-07
-4.43014e-10
2.50246e-07
-5.70904e-11
2.50308e-07
-6.09966e-10
2.50379e-07
-3.95457e-11
2.50467e-07
-7.47433e-10
2.50536e-07
-3.25609e-11
2.50648e-07
-8.51067e-10
2.50714e-07
-4.1059e-11
2.50845e-07
-9.1951e-10
2.5091e-07
-6.80282e-11
2.51056e-07
-9.54552e-10
2.51122e-07
-1.13456e-10
2.51277e-07
-9.60588e-10
2.51346e-07
-1.74498e-10
2.51507e-07
-9.43914e-10
2.51582e-07
-2.46146e-10
2.51744e-07
-9.11738e-10
2.51827e-07
-3.22309e-10
2.51988e-07
-8.71148e-10
2.52079e-07
-3.96993e-10
2.52237e-07
-8.28201e-10
2.52337e-07
-4.65275e-10
2.5249e-07
-7.87333e-10
2.52599e-07
-5.2385e-10
2.52748e-07
-7.51162e-10
2.52863e-07
-5.71083e-10
2.53008e-07
-7.20665e-10
2.53129e-07
-6.0667e-10
2.5327e-07
-6.95601e-10
2.53394e-07
-6.31118e-10
2.53533e-07
-6.74987e-10
2.53659e-07
-6.45255e-10
2.53795e-07
-6.57514e-10
2.5392e-07
-6.49952e-10
2.54054e-07
-6.41807e-10
2.54178e-07
-6.46056e-10
2.54309e-07
-6.26569e-10
2.54431e-07
-6.34493e-10
2.54559e-07
-6.10671e-10
2.54677e-07
-6.16388e-10
2.54802e-07
-5.93245e-10
2.54915e-07
-5.93094e-10
2.55035e-07
-5.73785e-10
2.55143e-07
-5.661e-10
2.55259e-07
-5.52225e-10
2.55362e-07
-5.36855e-10
2.55472e-07
-5.28935e-10
2.5557e-07
-5.06619e-10
2.55674e-07
-5.04602e-10
2.55766e-07
-4.76392e-10
2.55865e-07
-4.80011e-10
2.55952e-07
-4.46951e-10
2.56045e-07
-4.55825e-10
2.56127e-07
-4.18919e-10
2.56215e-07
-4.32428e-10
2.56292e-07
-3.9282e-10
2.56375e-07
-4.09912e-10
2.56448e-07
-3.6907e-10
2.56526e-07
-3.88212e-10
2.56595e-07
-3.47939e-10
2.56669e-07
-3.67291e-10
2.56734e-07
-3.29488e-10
2.56803e-07
-3.47269e-10
2.56866e-07
-3.13564e-10
2.56931e-07
-3.28441e-10
2.56991e-07
-2.99864e-10
2.57053e-07
-3.11197e-10
2.57111e-07
-2.88045e-10
2.5717e-07
-2.95893e-10
2.57225e-07
-2.77837e-10
2.57281e-07
-2.82755e-10
2.57335e-07
-2.69088e-10
2.57389e-07
-2.71844e-10
2.57442e-07
-2.61749e-10
2.57494e-07
-2.63072e-10
2.57545e-07
-2.55799e-10
2.57596e-07
-2.56245e-10
2.57647e-07
-2.51168e-10
2.57697e-07
-2.51097e-10
2.57746e-07
-2.47705e-10
2.57796e-07
-2.47332e-10
2.57845e-07
-2.45189e-10
2.57894e-07
-2.44648e-10
2.57942e-07
-2.43373e-10
2.57991e-07
-2.42748e-10
2.58039e-07
-2.42021e-10
2.58088e-07
-2.4136e-10
2.58136e-07
-2.40926e-10
2.58184e-07
-2.40244e-10
2.58232e-07
-2.39921e-10
2.5828e-07
-2.39207e-10
2.58328e-07
-2.38881e-10
2.58375e-07
-2.38115e-10
2.58423e-07
-2.37724e-10
2.5847e-07
-2.36892e-10
2.58517e-07
-2.36416e-10
2.58565e-07
-2.35516e-10
2.58611e-07
-2.34961e-10
2.58658e-07
-2.34e-10
2.58705e-07
-2.33391e-10
2.58751e-07
-2.32383e-10
2.58798e-07
-2.31748e-10
2.58844e-07
-2.30711e-10
2.5889e-07
-2.3008e-10
2.58936e-07
-2.29029e-10
2.58981e-07
-2.28427e-10
2.59027e-07
-2.27382e-10
2.59072e-07
-2.26824e-10
2.59117e-07
-2.25801e-10
2.59162e-07
-2.25296e-10
2.59207e-07
-2.24308e-10
2.59252e-07
-2.23855e-10
2.59296e-07
-2.22912e-10
2.59341e-07
-2.22505e-10
2.59385e-07
-2.21608e-10
2.59429e-07
-2.2124e-10
2.59473e-07
-2.20383e-10
2.59517e-07
-2.20045e-10
2.59561e-07
-2.19217e-10
2.59605e-07
-2.18898e-10
2.59648e-07
-2.18091e-10
2.59692e-07
-2.17775e-10
2.59735e-07
-2.16988e-10
2.59779e-07
-2.16651e-10
2.59822e-07
-2.15896e-10
2.59865e-07
-2.15512e-10
2.59908e-07
-2.14811e-10
2.59951e-07
-2.14351e-10
2.59993e-07
-2.13725e-10
2.60036e-07
-2.13174e-10
2.60078e-07
-2.1263e-10
2.60121e-07
-2.11991e-10
2.60163e-07
-2.11514e-10
2.60205e-07
-2.10816e-10
2.60247e-07
-2.10359e-10
2.60289e-07
-2.09656e-10
2.60331e-07
-2.09153e-10
2.60373e-07
-2.08506e-10
2.60414e-07
-2.07888e-10
2.60456e-07
-2.07345e-10
2.60497e-07
-2.06567e-10
2.60538e-07
-2.06143e-10
2.60579e-07
-2.05201e-10
2.6062e-07
-2.0487e-10
2.60661e-07
-2.03804e-10
2.60701e-07
-2.03503e-10
2.60742e-07
-2.02394e-10
2.60782e-07
-2.02042e-10
2.60822e-07
-2.00984e-10
2.60862e-07
-2.00506e-10
2.60902e-07
-1.99582e-10
2.60942e-07
-1.98937e-10
2.60982e-07
-1.98191e-10
2.61021e-07
-1.97386e-10
2.6106e-07
-1.96813e-10
2.61099e-07
-1.95896e-10
2.61138e-07
-1.95448e-10
2.61177e-07
-1.94489e-10
2.61216e-07
-1.94091e-10
2.61255e-07
-1.9316e-10
2.61293e-07
-1.92734e-10
2.61331e-07
-1.91873e-10
2.6137e-07
-1.91361e-10
2.61408e-07
-1.90572e-10
2.61446e-07
-1.89951e-10
2.61483e-07
-1.89206e-10
2.61521e-07
-1.88486e-10
2.61559e-07
-1.8774e-10
2.61596e-07
-1.86958e-10
2.61633e-07
-1.86177e-10
2.6167e-07
-1.85381e-10
2.61707e-07
-1.84566e-10
2.61744e-07
-1.83798e-10
2.6178e-07
-1.82988e-10
2.61816e-07
-1.8228e-10
2.61853e-07
-1.81546e-10
2.61889e-07
-1.80912e-10
2.61925e-07
-1.80332e-10
2.61961e-07
-1.79777e-10
2.61996e-07
-1.79404e-10
2.62032e-07
-1.78926e-10
2.62068e-07
-1.78762e-10
2.62103e-07
-1.78361e-10
2.62139e-07
-1.78344e-10
2.62174e-07
-1.78015e-10
2.6221e-07
-1.78029e-10
2.62245e-07
-1.77761e-10
2.62281e-07
-1.77671e-10
2.62316e-07
-1.77442e-10
2.62352e-07
-1.77139e-10
2.62387e-07
-1.76921e-10
2.62422e-07
-1.76361e-10
2.62457e-07
-1.76119e-10
2.62492e-07
-1.75344e-10
-1.7506e-10
2.50049e-07
-1.68844e-10
2.50007e-07
-1.90859e-11
2.50079e-07
-1.72585e-10
2.50069e-07
-2.43404e-10
2.50151e-07
-1.59539e-10
2.50168e-07
-4.60062e-10
2.50255e-07
-1.44178e-10
2.503e-07
-6.55126e-10
2.50388e-07
-1.2705e-10
2.5046e-07
-8.19244e-10
2.50545e-07
-1.17679e-10
2.50641e-07
-9.471e-10
2.50723e-07
-1.22735e-10
2.50839e-07
-1.03626e-09
2.50918e-07
-1.46818e-10
2.51052e-07
-1.08778e-09
2.51129e-07
-1.91137e-10
2.51274e-07
-1.10571e-09
2.51354e-07
-2.53485e-10
2.51506e-07
-1.09648e-09
2.51589e-07
-3.28877e-10
2.51745e-07
-1.06787e-09
2.51834e-07
-4.10732e-10
2.5199e-07
-1.02783e-09
2.52086e-07
-4.92267e-10
2.52241e-07
-9.83404e-10
2.52343e-07
-5.67692e-10
2.52496e-07
-9.39946e-10
2.52605e-07
-6.32946e-10
2.52755e-07
-9.00798e-10
2.5287e-07
-6.85842e-10
2.53017e-07
-8.67413e-10
2.53136e-07
-7.2574e-10
2.5328e-07
-8.39775e-10
2.53402e-07
-7.52971e-10
2.53544e-07
-8.16933e-10
2.53667e-07
-7.68304e-10
2.53807e-07
-7.97462e-10
2.53929e-07
-7.72625e-10
2.54067e-07
-7.79774e-10
2.54188e-07
-7.66882e-10
2.54323e-07
-7.62303e-10
2.54441e-07
-7.52202e-10
2.54574e-07
-7.43642e-10
2.54688e-07
-7.3001e-10
2.54817e-07
-7.22689e-10
2.54926e-07
-7.02025e-10
2.55051e-07
-6.98806e-10
2.55155e-07
-6.70087e-10
2.55275e-07
-6.71942e-10
2.55374e-07
-6.35911e-10
2.55488e-07
-6.42638e-10
2.55582e-07
-6.0089e-10
2.55689e-07
-6.11868e-10
2.55779e-07
-5.66043e-10
2.5588e-07
-5.80754e-10
2.55965e-07
-5.32112e-10
2.56059e-07
-5.5026e-10
2.5614e-07
-4.99698e-10
2.56229e-07
-5.20965e-10
2.56305e-07
-4.6935e-10
2.56388e-07
-4.93027e-10
2.56461e-07
-4.41556e-10
2.56539e-07
-4.66349e-10
2.56608e-07
-4.1667e-10
2.56681e-07
-4.40827e-10
2.56746e-07
-3.94816e-10
2.56816e-07
-4.16534e-10
2.56878e-07
-3.75865e-10
2.56943e-07
-3.93777e-10
2.57003e-07
-3.59502e-10
2.57065e-07
-3.72999e-10
2.57122e-07
-3.45357e-10
2.57181e-07
-3.54616e-10
2.57236e-07
-3.3313e-10
2.57292e-07
-3.38887e-10
2.57346e-07
-3.22657e-10
2.574e-07
-3.25866e-10
2.57452e-07
-3.13884e-10
2.57505e-07
-3.15425e-10
2.57556e-07
-3.06786e-10
2.57607e-07
-3.07311e-10
2.57657e-07
-3.01275e-10
2.57707e-07
-3.01196e-10
2.57756e-07
-2.97165e-10
2.57806e-07
-2.96725e-10
2.57855e-07
-2.94186e-10
2.57904e-07
-2.93537e-10
2.57952e-07
-2.92042e-10
2.58001e-07
-2.91285e-10
2.58049e-07
-2.90443e-10
2.58098e-07
-2.8964e-10
2.58146e-07
-2.89141e-10
2.58194e-07
-2.88312e-10
2.58242e-07
-2.87937e-10
2.5829e-07
-2.87069e-10
2.58338e-07
-2.8668e-10
2.58385e-07
-2.8575e-10
2.58433e-07
-2.85278e-10
2.5848e-07
-2.84269e-10
2.58527e-07
-2.83693e-10
2.58574e-07
-2.82604e-10
2.58621e-07
-2.81934e-10
2.58668e-07
-2.80773e-10
2.58715e-07
-2.80039e-10
2.58761e-07
-2.78823e-10
2.58807e-07
-2.78061e-10
2.58854e-07
-2.76808e-10
2.589e-07
-2.76054e-10
2.58945e-07
-2.74786e-10
2.58991e-07
-2.74068e-10
2.59036e-07
-2.72805e-10
2.59082e-07
-2.72143e-10
2.59127e-07
-2.70906e-10
2.59172e-07
-2.70307e-10
2.59216e-07
-2.69114e-10
2.59261e-07
-2.68576e-10
2.59306e-07
-2.67439e-10
2.5935e-07
-2.66954e-10
2.59394e-07
-2.65875e-10
2.59439e-07
-2.65434e-10
2.59483e-07
-2.64405e-10
2.59527e-07
-2.63999e-10
2.5957e-07
-2.63006e-10
2.59614e-07
-2.62623e-10
2.59658e-07
-2.61653e-10
2.59701e-07
-2.61275e-10
2.59744e-07
-2.60326e-10
2.59788e-07
-2.59928e-10
2.59831e-07
-2.59013e-10
2.59874e-07
-2.5856e-10
2.59917e-07
-2.57707e-10
2.59959e-07
-2.57165e-10
2.60002e-07
-2.56401e-10
2.60045e-07
-2.55747e-10
2.60087e-07
-2.55086e-10
2.60129e-07
-2.54323e-10
2.60172e-07
-2.53745e-10
2.60214e-07
-2.52908e-10
2.60256e-07
-2.5236e-10
2.60298e-07
-2.51514e-10
2.60339e-07
-2.50913e-10
2.60381e-07
-2.50132e-10
2.60422e-07
-2.49394e-10
2.60464e-07
-2.48741e-10
2.60505e-07
-2.47806e-10
2.60546e-07
-2.47301e-10
2.60587e-07
-2.46163e-10
2.60628e-07
-2.45774e-10
2.60669e-07
-2.44484e-10
2.60709e-07
-2.44133e-10
2.6075e-07
-2.42789e-10
2.6079e-07
-2.42374e-10
2.6083e-07
-2.41094e-10
2.6087e-07
-2.40524e-10
2.6091e-07
-2.39409e-10
2.6095e-07
-2.38633e-10
2.60989e-07
-2.37738e-10
2.61029e-07
-2.36764e-10
2.61068e-07
-2.36082e-10
2.61107e-07
-2.3497e-10
2.61146e-07
-2.3444e-10
2.61185e-07
-2.3328e-10
2.61223e-07
-2.32808e-10
2.61262e-07
-2.31686e-10
2.613e-07
-2.31177e-10
2.61339e-07
-2.30144e-10
2.61377e-07
-2.29528e-10
2.61415e-07
-2.28587e-10
2.61453e-07
-2.27836e-10
2.6149e-07
-2.26947e-10
2.61528e-07
-2.26075e-10
2.61565e-07
-2.25183e-10
2.61603e-07
-2.24236e-10
2.6164e-07
-2.23298e-10
2.61677e-07
-2.22335e-10