/*--------------------------------*- C++ -*----------------------------------*\
| =========                 |                                                 |
| \\      /  F ield         | OpenFOAM: The Open Source CFD Toolbox           |
|  \\    /   O peration     | Version:  2412                                  |
|   \\  /    A nd           | Website:  www.openfoam.com                      |
|    \\/     M anipulation  |                                                 |
\*---------------------------------------------------------------------------*/
FoamFile
{
    version     2.0;
    format      ascii;
    arch        "LSB;label=32;scalar=64";
    class       volVectorField;
    location    "800";
    object      U;
}
// * * * * * * * * * * * * * * * * * * * * * * * * * * * * * * * * * * * * * //

dimensions      [0 1 -1 0 0 0 0];

internalField   nonuniform List<vector> 
8000
(
(0.986725 -3.73104e-07 0)
(1.01349 -6.4272e-05 0)
(0.987067 2.55411e-05 0)
(1.01328 -0.000106052 0)
(0.98784 4.43156e-05 0)
(1.01302 -0.000152331 0)
(0.988988 5.55132e-05 0)
(1.01264 -0.000189537 0)
(0.990428 6.17847e-05 0)
(1.01222 -0.000216736 0)
(0.99209 6.14599e-05 0)
(1.0118 -0.000233292 0)
(0.99389 5.43689e-05 0)
(1.01143 -0.000239822 0)
(0.995754 4.09266e-05 0)
(1.01115 -0.00023782 0)
(0.997617 2.23221e-05 0)
(1.01101 -0.000229333 0)
(0.999433 2.66523e-07 0)
(1.01102 -0.00021664 0)
(1.00117 -2.32999e-05 0)
(1.01119 -0.000201913 0)
(1.00282 -4.6526e-05 0)
(1.01152 -0.000186971 0)
(1.00438 -6.79116e-05 0)
(1.01199 -0.000173119 0)
(1.00585 -8.64596e-05 0)
(1.01257 -0.000161105 0)
(1.00726 -0.000101697 0)
(1.01325 -0.000151185 0)
(1.00862 -0.000113586 0)
(1.014 -0.000143244 0)
(1.00994 -0.000122366 0)
(1.0148 -0.000136952 0)
(1.01123 -0.000128394 0)
(1.01563 -0.000131903 0)
(1.01249 -0.000132023 0)
(1.01648 -0.000127707 0)
(1.01372 -0.000133538 0)
(1.01734 -0.000124038 0)
(1.01492 -0.000133161 0)
(1.0182 -0.000120637 0)
(1.01608 -0.000131086 0)
(1.01906 -0.000117303 0)
(1.0172 -0.000127529 0)
(1.0199 -0.000113887 0)
(1.01828 -0.000122751 0)
(1.02072 -0.000110289 0)
(1.01931 -0.000117057 0)
(1.02152 -0.000106468 0)
(1.0203 -0.000110768 0)
(1.02229 -0.000102438 0)
(1.02123 -0.000104186 0)
(1.02302 -9.82592e-05 0)
(1.02211 -9.75752e-05 0)
(1.02371 -9.40134e-05 0)
(1.02295 -9.11513e-05 0)
(1.02436 -8.97753e-05 0)
(1.02374 -8.50866e-05 0)
(1.02497 -8.55898e-05 0)
(1.02448 -7.95106e-05 0)
(1.02555 -8.14638e-05 0)
(1.02518 -7.45046e-05 0)
(1.0261 -7.73868e-05 0)
(1.02584 -7.01022e-05 0)
(1.02663 -7.33684e-05 0)
(1.02646 -6.62924e-05 0)
(1.02713 -6.94584e-05 0)
(1.02704 -6.30244e-05 0)
(1.02761 -6.57414e-05 0)
(1.02759 -6.0224e-05 0)
(1.02807 -6.23155e-05 0)
(1.0281 -5.78153e-05 0)
(1.02852 -5.92637e-05 0)
(1.02859 -5.57368e-05 0)
(1.02896 -5.66331e-05 0)
(1.02905 -5.39512e-05 0)
(1.02938 -5.44349e-05 0)
(1.02949 -5.24457e-05 0)
(1.0298 -5.26543e-05 0)
(1.02992 -5.12176e-05 0)
(1.03021 -5.12589e-05 0)
(1.03033 -5.02568e-05 0)
(1.03061 -5.02023e-05 0)
(1.03073 -4.95349e-05 0)
(1.031 -4.94286e-05 0)
(1.03113 -4.9008e-05 0)
(1.03139 -4.88773e-05 0)
(1.03152 -4.86269e-05 0)
(1.03178 -4.84888e-05 0)
(1.03191 -4.83451e-05 0)
(1.03217 -4.82073e-05 0)
(1.0323 -4.81219e-05 0)
(1.03255 -4.79842e-05 0)
(1.03268 -4.79232e-05 0)
(1.03294 -4.77803e-05 0)
(1.03306 -4.77211e-05 0)
(1.03332 -4.75672e-05 0)
(1.03344 -4.74965e-05 0)
(1.0337 -4.73284e-05 0)
(1.03382 -4.72405e-05 0)
(1.03408 -4.70582e-05 0)
(1.0342 -4.69536e-05 0)
(1.03445 -4.67593e-05 0)
(1.03457 -4.66424e-05 0)
(1.03483 -4.64391e-05 0)
(1.03494 -4.63158e-05 0)
(1.0352 -4.61068e-05 0)
(1.03531 -4.59828e-05 0)
(1.03557 -4.57714e-05 0)
(1.03568 -4.56519e-05 0)
(1.03593 -4.54417e-05 0)
(1.03604 -4.53303e-05 0)
(1.03629 -4.51246e-05 0)
(1.0364 -4.50239e-05 0)
(1.03665 -4.48251e-05 0)
(1.03676 -4.47356e-05 0)
(1.03701 -4.45452e-05 0)
(1.03712 -4.44659e-05 0)
(1.03737 -4.4284e-05 0)
(1.03747 -4.42131e-05 0)
(1.03772 -4.40388e-05 0)
(1.03782 -4.39741e-05 0)
(1.03808 -4.38059e-05 0)
(1.03817 -4.37444e-05 0)
(1.03843 -4.35815e-05 0)
(1.03852 -4.35191e-05 0)
(1.03877 -4.33621e-05 0)
(1.03887 -4.32935e-05 0)
(1.03912 -4.3145e-05 0)
(1.03921 -4.30647e-05 0)
(1.03947 -4.29285e-05 0)
(1.03955 -4.2832e-05 0)
(1.03981 -4.27113e-05 0)
(1.03989 -4.25966e-05 0)
(1.04015 -4.24915e-05 0)
(1.04023 -4.23608e-05 0)
(1.04049 -4.22667e-05 0)
(1.04057 -4.21269e-05 0)
(1.04083 -4.20342e-05 0)
(1.04091 -4.1896e-05 0)
(1.04116 -4.1792e-05 0)
(1.04124 -4.16664e-05 0)
(1.0415 -4.1539e-05 0)
(1.04157 -4.14344e-05 0)
(1.04183 -4.12762e-05 0)
(1.0419 -4.11939e-05 0)
(1.04216 -4.10054e-05 0)
(1.04223 -4.09391e-05 0)
(1.04249 -4.07293e-05 0)
(1.04255 -4.06662e-05 0)
(1.04281 -4.04507e-05 0)
(1.04288 -4.03754e-05 0)
(1.04314 -4.01716e-05 0)
(1.0432 -4.00711e-05 0)
(1.04346 -3.98934e-05 0)
(1.04352 -3.97616e-05 0)
(1.04378 -3.96169e-05 0)
(1.04383 -3.94562e-05 0)
(1.04409 -3.93427e-05 0)
(1.04415 -3.91627e-05 0)
(1.04441 -3.90709e-05 0)
(1.04446 -3.88848e-05 0)
(1.04472 -3.8801e-05 0)
(1.04477 -3.86204e-05 0)
(1.04503 -3.85312e-05 0)
(1.04508 -3.83625e-05 0)
(1.04534 -3.82584e-05 0)
(1.04538 -3.81014e-05 0)
(1.04564 -3.79785e-05 0)
(1.04568 -3.78276e-05 0)
(1.04595 -3.76877e-05 0)
(1.04598 -3.75358e-05 0)
(1.04625 -3.73849e-05 0)
(1.04628 -3.72277e-05 0)
(1.04655 -3.70732e-05 0)
(1.04658 -3.69123e-05 0)
(1.04684 -3.67613e-05 0)
(1.04687 -3.66053e-05 0)
(1.04714 -3.64634e-05 0)
(1.04716 -3.63249e-05 0)
(1.04743 -3.61962e-05 0)
(1.04745 -3.60881e-05 0)
(1.04772 -3.59751e-05 0)
(1.04774 -3.59054e-05 0)
(1.048 -3.58089e-05 0)
(1.04802 -3.57768e-05 0)
(1.04829 -3.56968e-05 0)
(1.04831 -3.56897e-05 0)
(1.04858 -3.56256e-05 0)
(1.04859 -3.56211e-05 0)
(1.04886 -3.5571e-05 0)
(1.04888 -3.55439e-05 0)
(1.04915 -3.55029e-05 0)
(1.04916 -3.54347e-05 0)
(1.04944 -3.53958e-05 0)
(1.04944 -3.52797e-05 0)
(1.04972 -3.52398e-05 0)
(1.04972 -3.50851e-05 0)
(1.05 -3.50775e-05 0)
(0.988224 -1.11534e-05 0)
(1.012 -0.000167665 0)
(0.988455 5.60346e-05 0)
(1.01193 -0.000292262 0)
(0.989062 0.0001075 0)
(1.01184 -0.000428641 0)
(0.990027 0.000138911 0)
(1.01166 -0.000539949 0)
(0.991273 0.000157444 0)
(1.01144 -0.000623038 0)
(0.992745 0.000157964 0)
(1.01121 -0.000675721 0)
(0.994369 0.000139577 0)
(1.01101 -0.000699329 0)
(0.996078 0.000103056 0)
(1.01089 -0.00069776 0)
(0.997813 5.14514e-05 0)
(1.01087 -0.000676631 0)
(0.999529 -1.05803e-05 0)
(1.01097 -0.000642369 0)
(1.00119 -7.75889e-05 0)
(1.01121 -0.000601263 0)
(1.00279 -0.000144245 0)
(1.01158 -0.000558697 0)
(1.00432 -0.000206122 0)
(1.01208 -0.000518657 0)
(1.00578 -0.000260177 0)
(1.01268 -0.000483547 0)
(1.00718 -0.000304861 0)
(1.01337 -0.000454316 0)
(1.00854 -0.000339896 0)
(1.01412 -0.000430799 0)
(1.00986 -0.000365858 0)
(1.01491 -0.000412141 0)
(1.01115 -0.000383715 0)
(1.01574 -0.000397197 0)
(1.01242 -0.000394465 0)
(1.01658 -0.000384815 0)
(1.01366 -0.000398947 0)
(1.01743 -0.000373984 0)
(1.01487 -0.000397825 0)
(1.01828 -0.000363882 0)
(1.01604 -0.000391685 0)
(1.01913 -0.000353866 0)
(1.01717 -0.00038116 0)
(1.01997 -0.000343476 0)
(1.01826 -0.000367007 0)
(1.02078 -0.000332441 0)
(1.0193 -0.00035011 0)
(1.02157 -0.000320688 0)
(1.02029 -0.000331402 0)
(1.02233 -0.000308314 0)
(1.02123 -0.000311778 0)
(1.02305 -0.000295534 0)
(1.02212 -0.000292027 0)
(1.02374 -0.0002826 0)
(1.02296 -0.000272813 0)
(1.02439 -0.000269723 0)
(1.02375 -0.000254673 0)
(1.025 -0.000257024 0)
(1.0245 -0.000238004 0)
(1.02558 -0.000244529 0)
(1.0252 -0.000223055 0)
(1.02613 -0.000232227 0)
(1.02586 -0.000209922 0)
(1.02665 -0.000220157 0)
(1.02648 -0.00019856 0)
(1.02715 -0.000208452 0)
(1.02706 -0.000188813 0)
(1.02763 -0.000197344 0)
(1.02761 -0.000180462 0)
(1.0281 -0.0001871 0)
(1.02812 -0.000173284 0)
(1.02854 -0.00017795 0)
(1.02861 -0.000167097 0)
(1.02898 -0.000170041 0)
(1.02907 -0.000161791 0)
(1.02941 -0.000163424 0)
(1.02951 -0.000157325 0)
(1.02982 -0.000158071 0)
(1.02994 -0.000153682 0)
(1.03023 -0.000153887 0)
(1.03035 -0.000150828 0)
(1.03063 -0.000150725 0)
(1.03076 -0.000148675 0)
(1.03102 -0.000148406 0)
(1.03115 -0.000147098 0)
(1.03142 -0.000146744 0)
(1.03154 -0.000145951 0)
(1.0318 -0.000145559 0)
(1.03193 -0.000145098 0)
(1.03219 -0.000144693 0)
(1.03232 -0.000144419 0)
(1.03258 -0.000144007 0)
(1.0327 -0.000143813 0)
(1.03296 -0.000143385 0)
(1.03309 -0.000143199 0)
(1.03334 -0.000142741 0)
(1.03347 -0.00014252 0)
(1.03372 -0.000142022 0)
(1.03385 -0.000141751 0)
(1.0341 -0.000141212 0)
(1.03422 -0.000140893 0)
(1.03448 -0.000140319 0)
(1.0346 -0.000139965 0)
(1.03485 -0.000139363 0)
(1.03497 -0.000138991 0)
(1.03522 -0.00013837 0)
(1.03534 -0.000137997 0)
(1.03559 -0.000137368 0)
(1.0357 -0.000137006 0)
(1.03595 -0.00013638 0)
(1.03606 -0.000136043 0)
(1.03632 -0.000135429 0)
(1.03643 -0.000135122 0)
(1.03668 -0.00013453 0)
(1.03678 -0.000134255 0)
(1.03704 -0.000133687 0)
(1.03714 -0.000133442 0)
(1.03739 -0.000132899 0)
(1.03749 -0.00013268 0)
(1.03775 -0.000132158 0)
(1.03785 -0.000131959 0)
(1.0381 -0.000131455 0)
(1.0382 -0.000131266 0)
(1.03845 -0.000130778 0)
(1.03854 -0.000130588 0)
(1.0388 -0.000130117 0)
(1.03889 -0.000129911 0)
(1.03915 -0.000129464 0)
(1.03924 -0.000129225 0)
(1.03949 -0.000128815 0)
(1.03958 -0.000128529 0)
(1.03983 -0.000128165 0)
(1.03992 -0.000127825 0)
(1.04018 -0.000127509 0)
(1.04026 -0.00012712 0)
(1.04052 -0.000126838 0)
(1.0406 -0.000126421 0)
(1.04085 -0.000126144 0)
(1.04093 -0.000125729 0)
(1.04119 -0.000125419 0)
(1.04127 -0.00012504 0)
(1.04152 -0.000124661 0)
(1.0416 -0.000124341 0)
(1.04186 -0.000123871 0)
(1.04193 -0.000123617 0)
(1.04219 -0.000123056 0)
(1.04226 -0.000122851 0)
(1.04251 -0.000122224 0)
(1.04258 -0.000122032 0)
(1.04284 -0.000121383 0)
(1.04291 -0.000121159 0)
(1.04316 -0.000120541 0)
(1.04323 -0.000120246 0)
(1.04349 -0.000119703 0)
(1.04355 -0.000119316 0)
(1.0438 -0.000118872 0)
(1.04386 -0.000118396 0)
(1.04412 -0.000118047 0)
(1.04418 -0.00011751 0)
(1.04444 -0.00011723 0)
(1.04449 -0.00011667 0)
(1.04475 -0.000116418 0)
(1.0448 -0.000115872 0)
(1.04506 -0.000115606 0)
(1.04511 -0.000115095 0)
(1.04537 -0.000114785 0)
(1.04541 -0.00011431 0)
(1.04567 -0.000113942 0)
(1.04571 -0.00011349 0)
(1.04598 -0.000113069 0)
(1.04601 -0.000112617 0)
(1.04628 -0.000112161 0)
(1.04631 -0.000111695 0)
(1.04658 -0.000111228 0)
(1.04661 -0.00011075 0)
(1.04687 -0.000110297 0)
(1.0469 -0.000109828 0)
(1.04717 -0.000109406 0)
(1.04719 -0.000108987 0)
(1.04746 -0.000108606 0)
(1.04748 -0.000108275 0)
(1.04775 -0.000107941 0)
(1.04777 -0.000107726 0)
(1.04804 -0.000107439 0)
(1.04806 -0.000107338 0)
(1.04832 -0.000107096 0)
(1.04834 -0.000107075 0)
(1.04861 -0.000106875 0)
(1.04862 -0.000106868 0)
(1.0489 -0.000106705 0)
(1.04891 -0.000106638 0)
(1.04918 -0.000106499 0)
(1.04919 -0.000106311 0)
(1.04947 -0.000106181 0)
(1.04947 -0.000105848 0)
(1.04975 -0.000105717 0)
(1.04975 -0.000105261 0)
(1.05003 -0.000105195 0)
(0.990586 -4.24645e-05 0)
(1.00964 -0.000219187 0)
(0.990676 3.91457e-05 0)
(1.00977 -0.000423209 0)
(0.99105 0.000109045 0)
(1.00993 -0.000640676 0)
(0.99175 0.000153151 0)
(1.01004 -0.000821853 0)
(0.992709 0.000181166 0)
(1.01012 -0.000960845 0)
(0.99389 0.000184449 0)
(1.01019 -0.00105372 0)
(0.995237 0.000160559 0)
(1.01027 -0.00110163 0)
(0.996697 0.000109532 0)
(1.01039 -0.00110971 0)
(0.99822 3.4998e-05 0)
(1.01057 -0.00108592 0)
(0.999764 -5.66794e-05 0)
(1.01083 -0.00103975 0)
(1.0013 -0.000157547 0)
(1.0112 -0.000980818 0)
(1.0028 -0.000259461 0)
(1.01166 -0.000917638 0)
(1.00426 -0.000355367 0)
(1.01221 -0.000856761 0)
(1.00568 -0.000440157 0)
(1.01285 -0.00080239 0)
(1.00706 -0.000510971 0)
(1.01355 -0.000756454 0)
(1.00841 -0.000566963 0)
(1.0143 -0.000719065 0)
(1.00973 -0.000608706 0)
(1.0151 -0.000689136 0)
(1.01103 -0.000637493 0)
(1.01591 -0.000665009 0)
(1.01231 -0.000654758 0)
(1.01674 -0.000644912 0)
(1.01356 -0.000661764 0)
(1.01758 -0.000627232 0)
(1.01478 -0.000659556 0)
(1.01842 -0.00061061 0)
(1.01597 -0.000649097 0)
(1.01925 -0.000593971 0)
(1.01713 -0.000631461 0)
(1.02007 -0.000576535 0)
(1.01823 -0.000607939 0)
(1.02088 -0.000557856 0)
(1.01929 -0.000580019 0)
(1.02165 -0.000537835 0)
(1.02029 -0.000549246 0)
(1.0224 -0.000516682 0)
(1.02124 -0.000517063 0)
(1.02311 -0.000494816 0)
(1.02214 -0.000484718 0)
(1.02379 -0.00047272 0)
(1.02298 -0.000453239 0)
(1.02443 -0.000450797 0)
(1.02378 -0.000423458 0)
(1.02504 -0.000429276 0)
(1.02453 -0.000396009 0)
(1.02562 -0.000408195 0)
(1.02524 -0.000371308 0)
(1.02617 -0.000387509 0)
(1.0259 -0.00034954 0)
(1.02669 -0.000367249 0)
(1.02652 -0.000330666 0)
(1.02719 -0.000347619 0)
(1.0271 -0.000314454 0)
(1.02767 -0.000328998 0)
(1.02765 -0.000300556 0)
(1.02813 -0.000311838 0)
(1.02816 -0.00028861 0)
(1.02858 -0.000296532 0)
(1.02864 -0.000278315 0)
(1.02901 -0.000283326 0)
(1.0291 -0.000269491 0)
(1.02944 -0.000272299 0)
(1.02955 -0.000262072 0)
(1.02985 -0.000263394 0)
(1.02997 -0.000256033 0)
(1.03026 -0.000256443 0)
(1.03038 -0.000251314 0)
(1.03066 -0.000251196 0)
(1.03079 -0.000247767 0)
(1.03106 -0.000247354 0)
(1.03118 -0.000245175 0)
(1.03145 -0.000244605 0)
(1.03158 -0.000243293 0)
(1.03184 -0.000242652 0)
(1.03197 -0.000241894 0)
(1.03222 -0.000241226 0)
(1.03235 -0.000240776 0)
(1.03261 -0.000240094 0)
(1.03274 -0.000239772 0)
(1.03299 -0.00023906 0)
(1.03312 -0.000238746 0)
(1.03338 -0.000237982 0)
(1.0335 -0.000237609 0)
(1.03376 -0.000236775 0)
(1.03388 -0.000236318 0)
(1.03413 -0.000235415 0)
(1.03425 -0.000234878 0)
(1.03451 -0.000233917 0)
(1.03463 -0.000233323 0)
(1.03488 -0.000232316 0)
(1.035 -0.000231694 0)
(1.03525 -0.000230658 0)
(1.03537 -0.000230035 0)
(1.03562 -0.000228987 0)
(1.03574 -0.000228387 0)
(1.03599 -0.000227344 0)
(1.0361 -0.000226785 0)
(1.03635 -0.000225764 0)
(1.03646 -0.000225257 0)
(1.03671 -0.000224271 0)
(1.03682 -0.000223819 0)
(1.03707 -0.000222875 0)
(1.03718 -0.000222472 0)
(1.03743 -0.00022157 0)
(1.03753 -0.000221208 0)
(1.03778 -0.000220344 0)
(1.03788 -0.000220014 0)
(1.03813 -0.000219178 0)
(1.03823 -0.000218866 0)
(1.03849 -0.000218055 0)
(1.03858 -0.000217742 0)
(1.03883 -0.000216957 0)
(1.03893 -0.000216618 0)
(1.03918 -0.000215871 0)
(1.03927 -0.000215479 0)
(1.03953 -0.000214791 0)
(1.03962 -0.000214321 0)
(1.03987 -0.000213708 0)
(1.03996 -0.000213148 0)
(1.04021 -0.000212614 0)
(1.0403 -0.000211971 0)
(1.04055 -0.000211496 0)
(1.04063 -0.000210803 0)
(1.04089 -0.00021034 0)
(1.04097 -0.000209647 0)
(1.04123 -0.000209133 0)
(1.0413 -0.000208496 0)
(1.04156 -0.00020787 0)
(1.04164 -0.000207333 0)
(1.04189 -0.000206553 0)
(1.04197 -0.000206129 0)
(1.04222 -0.000205193 0)
(1.0423 -0.000204855 0)
(1.04255 -0.000203804 0)
(1.04262 -0.000203492 0)
(1.04288 -0.000202401 0)
(1.04294 -0.000202038 0)
(1.0432 -0.000200997 0)
(1.04326 -0.000200515 0)
(1.04352 -0.000199601 0)
(1.04358 -0.000198963 0)
(1.04384 -0.000198216 0)
(1.0439 -0.000197427 0)
(1.04416 -0.000196845 0)
(1.04421 -0.000195948 0)
(1.04447 -0.000195486 0)
(1.04453 -0.000194548 0)
(1.04479 -0.000194135 0)
(1.04484 -0.000193218 0)
(1.0451 -0.000192783 0)
(1.04514 -0.000191927 0)
(1.04541 -0.000191413 0)
(1.04545 -0.000190622 0)
(1.04571 -0.000190007 0)
(1.04575 -0.000189257 0)
(1.04602 -0.000188547 0)
(1.04605 -0.0001878 0)
(1.04632 -0.00018703 0)
(1.04635 -0.000186258 0)
(1.04662 -0.000185472 0)
(1.04665 -0.000184675 0)
(1.04691 -0.000183916 0)
(1.04694 -0.000183132 0)
(1.04721 -0.000182429 0)
(1.04723 -0.000181723 0)
(1.0475 -0.000181093 0)
(1.04752 -0.000180536 0)
(1.04779 -0.000179984 0)
(1.04781 -0.000179623 0)
(1.04808 -0.000179148 0)
(1.0481 -0.000178984 0)
(1.04836 -0.000178581 0)
(1.04838 -0.000178554 0)
(1.04865 -0.000178218 0)
(1.04867 -0.00017822 0)
(1.04894 -0.000177939 0)
(1.04895 -0.000177842 0)
(1.04922 -0.000177598 0)
(1.04923 -0.000177299 0)
(1.04951 -0.000177066 0)
(1.04951 -0.000176523 0)
(1.04979 -0.000176277 0)
(1.04979 -0.000175527 0)
(1.05007 -0.000175295 0)
(0.992857 -9.50295e-05 0)
(1.00738 -0.000216904 0)
(0.992814 -2.74154e-05 0)
(1.00771 -0.000495137 0)
(0.992959 4.41697e-05 0)
(1.00811 -0.000782201 0)
(0.993403 9.14782e-05 0)
(1.00849 -0.00102719 0)
(0.994084 0.000124513 0)
(1.00886 -0.00122075 0)
(0.994983 0.000131263 0)
(1.00922 -0.00135711 0)
(0.99606 0.00010695 0)
(1.00957 -0.00143633 0)
(0.997274 4.98126e-05 0)
(1.00993 -0.00146356 0)
(0.998585 -3.72427e-05 0)
(1.01031 -0.00144781 0)
(0.999956 -0.000147438 0)
(1.01074 -0.00140045 0)
(1.00135 -0.000271425 0)
(1.01123 -0.00133351 0)
(1.00276 -0.00039904 0)
(1.01178 -0.00125807 0)
(1.00415 -0.000521033 0)
(1.01239 -0.00118303 0)
(1.00552 -0.000630342 0)
(1.01307 -0.00111445 0)
(1.00688 -0.000722663 0)
(1.01379 -0.00105547 0)
(1.00822 -0.000796304 0)
(1.01455 -0.00100678 0)
(1.00954 -0.000851518 0)
(1.01534 -0.000967375 0)
(1.01085 -0.000889627 0)
(1.01615 -0.00093534 0)
(1.01214 -0.000912279 0)
(1.01697 -0.000908463 0)
(1.01341 -0.000921012 0)
(1.01779 -0.000884624 0)
(1.01466 -0.000917174 0)
(1.01861 -0.000861964 0)
(1.01587 -0.00090208 0)
(1.01942 -0.000838965 0)
(1.01705 -0.000877239 0)
(1.02022 -0.000814513 0)
(1.01818 -0.000844471 0)
(1.021 -0.000787977 0)
(1.01925 -0.000805844 0)
(1.02176 -0.000759256 0)
(1.02027 -0.000763473 0)
(1.02249 -0.000728723 0)
(1.02124 -0.000719293 0)
(1.02319 -0.00069707 0)
(1.02215 -0.000674942 0)
(1.02385 -0.000665085 0)
(1.02301 -0.000631758 0)
(1.02449 -0.000633433 0)
(1.02381 -0.000590832 0)
(1.02509 -0.000602495 0)
(1.02456 -0.000553009 0)
(1.02566 -0.000572353 0)
(1.02527 -0.000518868 0)
(1.02621 -0.000542941 0)
(1.02594 -0.000488691 0)
(1.02672 -0.000514278 0)
(1.02656 -0.000462457 0)
(1.02722 -0.000486617 0)
(1.02714 -0.000439878 0)
(1.0277 -0.000460453 0)
(1.02768 -0.000420502 0)
(1.02816 -0.000436395 0)
(1.02819 -0.000403837 0)
(1.02861 -0.000414972 0)
(1.02868 -0.000389476 0)
(1.02905 -0.000396511 0)
(1.02914 -0.000377169 0)
(1.02947 -0.000381116 0)
(1.02958 -0.000366824 0)
(1.02989 -0.000368696 0)
(1.03 -0.00035841 0)
(1.03029 -0.000359011 0)
(1.03042 -0.000351841 0)
(1.03069 -0.000351706 0)
(1.03082 -0.000346908 0)
(1.03109 -0.000346359 0)
(1.03122 -0.000343306 0)
(1.03148 -0.00034253 0)
(1.03161 -0.000340691 0)
(1.03187 -0.000339806 0)
(1.032 -0.000338743 0)
(1.03226 -0.000337814 0)
(1.03238 -0.000337182 0)
(1.03264 -0.000336229 0)
(1.03277 -0.000335774 0)
(1.03303 -0.000334779 0)
(1.03315 -0.000334332 0)
(1.03341 -0.000333265 0)
(1.03353 -0.000332732 0)
(1.03379 -0.000331571 0)
(1.03391 -0.00033092 0)
(1.03417 -0.000329663 0)
(1.03429 -0.000328901 0)
(1.03454 -0.000327561 0)
(1.03466 -0.000326722 0)
(1.03492 -0.000325318 0)
(1.03503 -0.000324441 0)
(1.03529 -0.000322996 0)
(1.0354 -0.000322119 0)
(1.03566 -0.000320655 0)
(1.03577 -0.000319812 0)
(1.03602 -0.000318354 0)
(1.03613 -0.00031757 0)
(1.03639 -0.000316143 0)
(1.03649 -0.000315432 0)
(1.03675 -0.000314054 0)
(1.03685 -0.000313417 0)
(1.0371 -0.000312099 0)
(1.03721 -0.00031153 0)
(1.03746 -0.000310272 0)
(1.03756 -0.00030976 0)
(1.03782 -0.000308554 0)
(1.03791 -0.000308086 0)
(1.03817 -0.000306921 0)
(1.03826 -0.000306479 0)
(1.03852 -0.000305346 0)
(1.03861 -0.000304905 0)
(1.03887 -0.000303806 0)
(1.03896 -0.000303332 0)
(1.03921 -0.000302285 0)
(1.0393 -0.000301738 0)
(1.03956 -0.000300771 0)
(1.03965 -0.000300117 0)
(1.0399 -0.000299255 0)
(1.03999 -0.000298474 0)
(1.04024 -0.000297725 0)
(1.04033 -0.000296827 0)
(1.04058 -0.000296163 0)
(1.04067 -0.00029519 0)
(1.04092 -0.000294546 0)
(1.041 -0.000293571 0)
(1.04126 -0.000292857 0)
(1.04134 -0.000291961 0)
(1.04159 -0.000291089 0)
(1.04167 -0.000290333 0)
(1.04192 -0.000289244 0)
(1.042 -0.000288648 0)
(1.04226 -0.000287336 0)
(1.04233 -0.000286864 0)
(1.04258 -0.000285387 0)
(1.04265 -0.000284953 0)
(1.04291 -0.000283419 0)
(1.04298 -0.000282914 0)
(1.04323 -0.00028145 0)
(1.0433 -0.000280777 0)
(1.04356 -0.000279492 0)
(1.04362 -0.000278597 0)
(1.04387 -0.000277551 0)
(1.04393 -0.000276439 0)
(1.04419 -0.000275627 0)
(1.04425 -0.000274363 0)
(1.04451 -0.000273722 0)
(1.04456 -0.000272398 0)
(1.04482 -0.000271827 0)
(1.04487 -0.000270535 0)
(1.04513 -0.00026993 0)
(1.04517 -0.000268727 0)
(1.04544 -0.00026801 0)
(1.04548 -0.000266902 0)
(1.04574 -0.000266039 0)
(1.04578 -0.00026499 0)
(1.04605 -0.000263993 0)
(1.04608 -0.000262947 0)
(1.04635 -0.000261866 0)
(1.04638 -0.000260782 0)
(1.04665 -0.00025968 0)
(1.04668 -0.000258558 0)
(1.04694 -0.000257494 0)
(1.04697 -0.000256387 0)
(1.04724 -0.000255404 0)
(1.04726 -0.000254405 0)
(1.04753 -0.000253525 0)
(1.04755 -0.000252736 0)
(1.04782 -0.000251965 0)
(1.04784 -0.000251454 0)
(1.0481 -0.000250789 0)
(1.04812 -0.000250558 0)
(1.04839 -0.000249996 0)
(1.04841 -0.000249959 0)
(1.04868 -0.000249491 0)
(1.04869 -0.000249495 0)
(1.04896 -0.000249106 0)
(1.04897 -0.000248971 0)
(1.04925 -0.000248632 0)
(1.04926 -0.000248212 0)
(1.04953 -0.000247885 0)
(1.04954 -0.000247124 0)
(1.04982 -0.000246764 0)
(1.04982 -0.000245716 0)
(1.0501 -0.00024528 0)
(0.994388 -0.000172051 0)
(1.00587 -0.000166019 0)
(0.994252 -0.000137791 0)
(1.00634 -0.000514704 0)
(0.994229 -7.72676e-05 0)
(1.00691 -0.000863468 0)
(0.994487 -3.35839e-05 0)
(1.00749 -0.00116851 0)
(0.994966 1.67412e-06 0)
(1.00807 -0.0014164 0)
(0.995661 1.31871e-05 0)
(1.00863 -0.0015995 0)
(0.996541 -6.90568e-06 0)
(1.00918 -0.00171606 0)
(0.997575 -6.3045e-05 0)
(1.00971 -0.00177036 0)
(0.99873 -0.000154087 0)
(1.01025 -0.00177144 0)
(0.99997 -0.000273834 0)
(1.0108 -0.00173166 0)
(1.00127 -0.000412356 0)
(1.01138 -0.00166478 0)
(1.00259 -0.00055803 0)
(1.012 -0.00158402 0)
(1.00393 -0.000699701 0)
(1.01266 -0.00150046 0)
(1.00528 -0.000828412 0)
(1.01337 -0.00142205 0)
(1.00662 -0.000938318 0)
(1.01411 -0.00135331 0)
(1.00795 -0.00102669 0)
(1.01487 -0.00129575 0)
(1.00928 -0.00109325 0)
(1.01566 -0.00124865 0)
(1.0106 -0.00113913 0)
(1.01645 -0.00121001 0)
(1.01192 -0.00116602 0)
(1.01725 -0.00117733 0)
(1.01321 -0.00117559 0)
(1.01805 -0.00114806 0)
(1.01449 -0.00116943 0)
(1.01884 -0.00111987 0)
(1.01573 -0.00114918 0)
(1.01962 -0.00109079 0)
(1.01694 -0.00111683 0)
(1.02039 -0.00105933 0)
(1.0181 -0.00107477 0)
(1.02115 -0.00102465 0)
(1.0192 -0.0010257 0)
(1.02188 -0.000986633 0)
(1.02025 -0.000972307 0)
(1.02259 -0.000945873 0)
(1.02124 -0.000916945 0)
(1.02327 -0.000903432 0)
(1.02216 -0.000861531 0)
(1.02392 -0.000860529 0)
(1.02303 -0.000807578 0)
(1.02455 -0.00081821 0)
(1.02384 -0.000756321 0)
(1.02514 -0.000777094 0)
(1.0246 -0.000708754 0)
(1.02571 -0.000737327 0)
(1.02531 -0.00066561 0)
(1.02625 -0.000698793 0)
(1.02598 -0.0006273 0)
(1.02677 -0.00066145 0)
(1.0266 -0.00059387 0)
(1.02726 -0.000625556 0)
(1.02718 -0.00056502 0)
(1.02774 -0.000591709 0)
(1.02772 -0.000540219 0)
(1.0282 -0.000560666 0)
(1.02823 -0.000518864 0)
(1.02865 -0.000533093 0)
(1.02872 -0.000500443 0)
(1.02908 -0.000509388 0)
(1.02917 -0.000484649 0)
(1.02951 -0.000489658 0)
(1.02961 -0.000471377 0)
(1.02992 -0.000473768 0)
(1.03004 -0.000460599 0)
(1.03033 -0.000461393 0)
(1.03045 -0.000452209 0)
(1.03073 -0.000452072 0)
(1.03085 -0.000445933 0)
(1.03112 -0.000445257 0)
(1.03125 -0.000441364 0)
(1.03151 -0.000440384 0)
(1.03164 -0.000438054 0)
(1.0319 -0.000436923 0)
(1.03203 -0.000435583 0)
(1.03229 -0.000434392 0)
(1.03242 -0.000433594 0)
(1.03267 -0.000432371 0)
(1.0328 -0.000431788 0)
(1.03306 -0.00043051 0)
(1.03318 -0.000429929 0)
(1.03344 -0.000428555 0)
(1.03356 -0.000427858 0)
(1.03382 -0.000426362 0)
(1.03394 -0.000425511 0)
(1.0342 -0.00042389 0)
(1.03432 -0.000422898 0)
(1.03458 -0.000421171 0)
(1.03469 -0.000420081 0)
(1.03495 -0.000418274 0)
(1.03506 -0.000417138 0)
(1.03532 -0.000415277 0)
(1.03543 -0.000414146 0)
(1.03569 -0.000412261 0)
(1.0358 -0.000411177 0)
(1.03605 -0.0004093 0)
(1.03616 -0.000408295 0)
(1.03642 -0.000406458 0)
(1.03652 -0.000405548 0)
(1.03678 -0.000403775 0)
(1.03688 -0.000402961 0)
(1.03713 -0.000401267 0)
(1.03724 -0.000400538 0)
(1.03749 -0.000398924 0)
(1.03759 -0.000398265 0)
(1.03784 -0.00039672 0)
(1.03794 -0.000396116 0)
(1.0382 -0.000394624 0)
(1.03829 -0.000394054 0)
(1.03855 -0.000392602 0)
(1.03864 -0.000392034 0)
(1.0389 -0.000390622 0)
(1.03899 -0.000390015 0)
(1.03924 -0.000388663 0)
(1.03933 -0.000387967 0)
(1.03959 -0.000386713 0)
(1.03968 -0.00038588 0)
(1.03993 -0.000384762 0)
(1.04002 -0.000383765 0)
(1.04027 -0.000382793 0)
(1.04036 -0.000381641 0)
(1.04061 -0.000380783 0)
(1.04069 -0.000379531 0)
(1.04095 -0.000378704 0)
(1.04103 -0.000377445 0)
(1.04128 -0.000376533 0)
(1.04136 -0.000375373 0)
(1.04162 -0.000374257 0)
(1.04169 -0.000373282 0)
(1.04195 -0.000371882 0)
(1.04202 -0.000371118 0)
(1.04228 -0.000369425 0)
(1.04235 -0.000368826 0)
(1.04261 -0.000366915 0)
(1.04268 -0.000366368 0)
(1.04293 -0.00036438 0)
(1.043 -0.000363742 0)
(1.04326 -0.000361846 0)
(1.04332 -0.000360986 0)
(1.04358 -0.000359326 0)
(1.04364 -0.000358172 0)
(1.0439 -0.000356827 0)
(1.04395 -0.000355389 0)
(1.04421 -0.000354353 0)
(1.04427 -0.000352713 0)
(1.04453 -0.0003519 0)
(1.04458 -0.000350185 0)
(1.04484 -0.000349462 0)
(1.04489 -0.000347791 0)
(1.04515 -0.00034702 0)
(1.0452 -0.00034547 0)
(1.04546 -0.000344548 0)
(1.0455 -0.000343126 0)
(1.04576 -0.00034201 0)
(1.0458 -0.000340665 0)
(1.04607 -0.000339374 0)
(1.0461 -0.000338032 0)
(1.04637 -0.00033663 0)
(1.0464 -0.000335233 0)
(1.04666 -0.000333806 0)
(1.0467 -0.000332352 0)
(1.04696 -0.000330979 0)
(1.04699 -0.000329539 0)
(1.04725 -0.000328273 0)
(1.04728 -0.000326971 0)
(1.04754 -0.000325839 0)
(1.04757 -0.00032481 0)
(1.04783 -0.000323819 0)
(1.04785 -0.000323157 0)
(1.04812 -0.000322303 0)
(1.04814 -0.000322009 0)
(1.0484 -0.000321286 0)
(1.04842 -0.00032125 0)
(1.04869 -0.00032065 0)
(1.04871 -0.000320666 0)
(1.04898 -0.000320169 0)
(1.04899 -0.00032 0)
(1.04926 -0.000319569 0)
(1.04927 -0.000319022 0)
(1.04955 -0.000318606 0)
(1.04955 -0.000317608 0)
(1.04983 -0.000317148 0)
(1.04983 -0.000315772 0)
(1.05011 -0.000315209 0)
(0.995173 -0.000265785 0)
(1.00512 -8.78946e-05 0)
(0.994988 -0.000273298 0)
(1.00567 -0.0005035 0)
(0.994865 -0.0002314 0)
(1.00634 -0.000908987 0)
(0.99501 -0.000195666 0)
(1.00704 -0.00127132 0)
(0.995367 -0.00016044 0)
(1.00774 -0.00157282 0)
(0.995934 -0.000144126 0)
(1.00843 -0.00180401 0)
(0.996689 -0.000158023 0)
(1.0091 -0.00196102 0)
(0.997607 -0.00020964 0)
(1.00975 -0.00204679 0)
(0.998657 -0.000300086 0)
(1.01038 -0.00206985 0)
(0.99981 -0.000424249 0)
(1.01102 -0.00204306 0)
(1.00104 -0.000572074 0)
(1.01167 -0.00198146 0)
(1.00231 -0.000730835 0)
(1.01234 -0.00190013 0)
(1.00362 -0.000887717 0)
(1.01303 -0.00181216 0)
(1.00494 -0.001032 0)
(1.01376 -0.00172734 0)
(1.00627 -0.00115632 0)
(1.01451 -0.00165161 0)
(1.00761 -0.00125688 0)
(1.01527 -0.00158735 0)
(1.00895 -0.00133275 0)
(1.01604 -0.00153428 0)
(1.0103 -0.0013848 0)
(1.01682 -0.00149042 0)
(1.01164 -0.00141464 0)
(1.01759 -0.00145304 0)
(1.01297 -0.00142404 0)
(1.01836 -0.00141921 0)
(1.01428 -0.00141477 0)
(1.01913 -0.0013861 0)
(1.01556 -0.00138884 0)
(1.01988 -0.00135126 0)
(1.0168 -0.00134873 0)
(1.02061 -0.00131275 0)
(1.018 -0.00129747 0)
(1.02134 -0.00126948 0)
(1.01914 -0.0012384 0)
(1.02204 -0.00122138 0)
(1.02022 -0.00117472 0)
(1.02272 -0.0011693 0)
(1.02123 -0.00110915 0)
(1.02338 -0.00111481 0)
(1.02218 -0.00104374 0)
(1.02401 -0.0010597 0)
(1.02306 -0.00098006 0)
(1.02462 -0.00100551 0)
(1.02388 -0.000919395 0)
(1.0252 -0.000953209 0)
(1.02465 -0.00086283 0)
(1.02576 -0.00090304 0)
(1.02537 -0.000811238 0)
(1.0263 -0.000854844 0)
(1.02603 -0.000765174 0)
(1.02681 -0.00080848 0)
(1.02665 -0.000724786 0)
(1.02731 -0.000764169 0)
(1.02723 -0.000689804 0)
(1.02778 -0.000722561 0)
(1.02777 -0.000659658 0)
(1.02825 -0.000684525 0)
(1.02828 -0.000633659 0)
(1.02869 -0.00065083 0)
(1.02876 -0.000611209 0)
(1.02913 -0.00062193 0)
(1.02922 -0.000591953 0)
(1.02955 -0.000597926 0)
(1.02966 -0.000575779 0)
(1.02996 -0.000578631 0)
(1.03008 -0.000562668 0)
(1.03037 -0.000563631 0)
(1.03049 -0.00055249 0)
(1.03077 -0.000552347 0)
(1.03089 -0.000544901 0)
(1.03116 -0.000544102 0)
(1.03129 -0.00053939 0)
(1.03155 -0.000538207 0)
(1.03168 -0.000535397 0)
(1.03194 -0.000534014 0)
(1.03207 -0.000532409 0)
(1.03233 -0.000530944 0)
(1.03246 -0.000529991 0)
(1.03271 -0.000528485 0)
(1.03284 -0.000527783 0)
(1.0331 -0.000526211 0)
(1.03322 -0.000525497 0)
(1.03348 -0.00052381 0)
(1.0336 -0.000522948 0)
(1.03386 -0.000521112 0)
(1.03398 -0.000520057 0)
(1.03424 -0.000518071 0)
(1.03436 -0.000516845 0)
(1.03461 -0.00051473 0)
(1.03473 -0.000513387 0)
(1.03499 -0.000511173 0)
(1.0351 -0.000509778 0)
(1.03536 -0.000507498 0)
(1.03547 -0.000506113 0)
(1.03573 -0.000503802 0)
(1.03584 -0.000502478 0)
(1.03609 -0.000500176 0)
(1.0362 -0.000498953 0)
(1.03645 -0.000496698 0)
(1.03656 -0.000495591 0)
(1.03681 -0.000493417 0)
(1.03692 -0.000492425 0)
(1.03717 -0.00049035 0)
(1.03727 -0.000489457 0)
(1.03753 -0.000487484 0)
(1.03763 -0.000486673 0)
(1.03788 -0.000484788 0)
(1.03798 -0.000484041 0)
(1.03823 -0.000482222 0)
(1.03833 -0.000481517 0)
(1.03858 -0.000479743 0)
(1.03868 -0.000479046 0)
(1.03893 -0.000477315 0)
(1.03902 -0.000476576 0)
(1.03928 -0.000474913 0)
(1.03937 -0.00047407 0)
(1.03962 -0.000472523 0)
(1.03971 -0.000471514 0)
(1.03997 -0.000470132 0)
(1.04005 -0.000468922 0)
(1.04031 -0.000467723 0)
(1.04039 -0.000466318 0)
(1.04065 -0.000465266 0)
(1.04073 -0.000463732 0)
(1.04098 -0.000462725 0)
(1.04106 -0.000461178 0)
(1.04132 -0.00046007 0)
(1.0414 -0.000458644 0)
(1.04165 -0.000457286 0)
(1.04173 -0.000456088 0)
(1.04198 -0.000454376 0)
(1.04206 -0.000453444 0)
(1.04231 -0.000451366 0)
(1.04238 -0.000450642 0)
(1.04264 -0.00044829 0)
(1.04271 -0.000447633 0)
(1.04297 -0.000445186 0)
(1.04303 -0.000444414 0)
(1.04329 -0.000442081 0)
(1.04335 -0.000441031 0)
(1.04361 -0.000438995 0)
(1.04367 -0.000437576 0)
(1.04393 -0.000435935 0)
(1.04398 -0.000434159 0)
(1.04424 -0.000432903 0)
(1.0443 -0.000430877 0)
(1.04456 -0.000429898 0)
(1.04461 -0.00042778 0)
(1.04487 -0.000426909 0)
(1.04492 -0.000424854 0)
(1.04518 -0.000423919 0)
(1.04522 -0.000422019 0)
(1.04549 -0.000420893 0)
(1.04553 -0.000419157 0)
(1.04579 -0.000417786 0)
(1.04583 -0.000416147 0)
(1.04609 -0.000414559 0)
(1.04613 -0.000412918 0)
(1.04639 -0.000411194 0)
(1.04643 -0.000409478 0)
(1.04669 -0.000407726 0)
(1.04672 -0.000405932 0)