/*--------------------------------*- C++ -*----------------------------------*\
| =========                 |                                                 |
| \\      /  F ield         | OpenFOAM: The Open Source CFD Toolbox           |
|  \\    /   O peration     | Version:  2412                                  |
|   \\  /    A nd           | Website:  www.openfoam.com                      |
|    \\/     M anipulation  |                                                 |
\*---------------------------------------------------------------------------*/
FoamFile
{
    version     2.0;
    format      ascii;
    arch        "LSB;label=32;scalar=64";
    class       volScalarField;
    location    "1000";
    object      p;
}
// * * * * * * * * * * * * * * * * * * * * * * * * * * * * * * * * * * * * * //

dimensions      [0 2 -2 0 0 0 0];

internalField   nonuniform List<scalar> 
8000
(
0.0507371
0.0507053
0.0506265
0.0505161
0.0503725
0.0501949
0.0499853
0.049746
0.0494786
0.0491852
0.0488676
0.0485278
0.0481673
0.0477882
0.0473916
0.0469793
0.0465525
0.0461124
0.0456602
0.0451967
0.0447231
0.0442401
0.0437485
0.043249
0.0427423
0.0422291
0.04171
0.0411857
0.0406566
0.0401234
0.0395868
0.0390473
0.0385055
0.0379622
0.0374178
0.0368733
0.0363291
0.0357861
0.0352449
0.0347064
0.0341711
0.03364
0.0331137
0.0325931
0.0320788
0.0315716
0.0310722
0.0305813
0.0300994
0.0296273
0.0291653
0.028714
0.0282736
0.0278447
0.0274273
0.0270217
0.0266279
0.026246
0.0258757
0.0255172
0.0251699
0.0248339
0.0245085
0.0241937
0.0238888
0.0235935
0.023307
0.0230293
0.0227594
0.0224971
0.0222416
0.0219928
0.0217497
0.0215122
0.0212795
0.0210515
0.0208275
0.0206073
0.0203903
0.0201765
0.0199653
0.0197566
0.0195499
0.0193453
0.0191423
0.0189409
0.0187408
0.018542
0.0183441
0.0181475
0.0179514
0.0177565
0.017562
0.0173684
0.0171752
0.0169829
0.0167909
0.0165997
0.0164088
0.0162187
0.0160289
0.01584
0.0156513
0.0154635
0.015276
0.0150895
0.0149032
0.0147179
0.0145329
0.0143489
0.0141653
0.0139826
0.0138003
0.013619
0.0134381
0.0132581
0.0130785
0.0128999
0.0127217
0.0125444
0.0123674
0.0121915
0.0120158
0.0118411
0.0116668
0.0114934
0.0113203
0.0111482
0.0109764
0.0108056
0.010635
0.0104655
0.0102963
0.0101281
0.00996007
0.00979312
0.00962638
0.00946068
0.00929517
0.00913069
0.00896638
0.00880309
0.00863994
0.00847781
0.0083158
0.00815478
0.00799387
0.00783394
0.00767409
0.00751522
0.00735641
0.00719856
0.00704076
0.00688392
0.00672712
0.00657127
0.00641544
0.00626057
0.0061057
0.00595177
0.00579783
0.00564481
0.00549173
0.00533955
0.00518727
0.00503585
0.00488428
0.00473353
0.00458259
0.00443243
0.00428208
0.00413247
0.00398267
0.00383364
0.00368444
0.00353605
0.00338751
0.00323988
0.00309211
0.00294535
0.00279843
0.00265263
0.00250661
0.00236181
0.00221667
0.00207281
0.00192846
0.00178541
0.00164171
0.00149928
0.00135604
0.00121398
0.00107103
0.000929139
0.000786312
0.000644416
0.000501623
0.000359593
0.000216634
7.32516e-05
0.0507463
0.0507144
0.0506355
0.0505247
0.0503808
0.0502028
0.0499927
0.0497529
0.049485
0.0491912
0.0488731
0.0485328
0.0481719
0.0477924
0.0473955
0.0469829
0.0465557
0.0461154
0.0456629
0.0451992
0.0447254
0.0442421
0.0437503
0.0432506
0.0427438
0.0422305
0.0417112
0.0411867
0.0406574
0.0401242
0.0395873
0.0390477
0.0385057
0.0379623
0.0374177
0.0368731
0.0363286
0.0357855
0.0352441
0.0347054
0.0341699
0.0336386
0.0331121
0.0325914
0.0320769
0.0315695
0.03107
0.0305789
0.0300969
0.0296247
0.0291625
0.0287111
0.0282707
0.0278417
0.0274243
0.0270187
0.0266248
0.026243
0.0258727
0.0255143
0.0251671
0.0248312
0.0245059
0.0241912
0.0238863
0.0235912
0.0233049
0.0230273
0.0227575
0.0224954
0.02224
0.0219913
0.0217483
0.0215109
0.0212783
0.0210505
0.0208265
0.0206065
0.0203896
0.0201758
0.0199646
0.019756
0.0195494
0.0193449
0.0191419
0.0189406
0.0187404
0.0185417
0.0183439
0.0181472
0.0179512
0.0177563
0.0175618
0.0173682
0.017175
0.0169827
0.0167907
0.0165995
0.0164086
0.0162186
0.0160288
0.0158398
0.0156512
0.0154634
0.0152759
0.0150893
0.014903
0.0147177
0.0145327
0.0143487
0.0141651
0.0139824
0.0138001
0.0136188
0.0134379
0.0132579
0.0130783
0.0128998
0.0127215
0.0125442
0.0123673
0.0121913
0.0120156
0.011841
0.0116666
0.0114932
0.0113201
0.011148
0.0109762
0.0108054
0.0106349
0.0104654
0.0102961
0.0101279
0.0099599
0.00979295
0.00962621
0.00946051
0.009295
0.00913053
0.00896622
0.00880293
0.00863979
0.00847766
0.00831565
0.00815464
0.00799372
0.0078338
0.00767395
0.00751508
0.00735627
0.00719842
0.00704063
0.00688378
0.00672698
0.00657113
0.00641531
0.00626044
0.00610557
0.00595165
0.00579771
0.00564469
0.00549162
0.00533945
0.00518717
0.00503576
0.00488419
0.00473344
0.00458251
0.00443235
0.004282
0.00413239
0.00398259
0.00383356
0.00368435
0.00353595
0.00338741
0.00323977
0.00309199
0.00294522
0.0027983
0.0026525
0.00250648
0.00236168
0.00221655
0.0020727
0.00192836
0.00178532
0.00164163
0.00149921
0.00135598
0.00121394
0.001071
0.00092912
0.000786301
0.000644412
0.000501623
0.000359599
0.000216649
7.32617e-05
0.0507648
0.0507328
0.0506534
0.0505421
0.0503974
0.0502186
0.0500076
0.0497669
0.049498
0.0492032
0.0488841
0.048543
0.0481812
0.0478009
0.0474032
0.04699
0.0465622
0.0461213
0.0456682
0.0452041
0.0447298
0.0442462
0.043754
0.043254
0.0427468
0.0422331
0.0417136
0.0411888
0.0406592
0.0401256
0.0395885
0.0390486
0.0385063
0.0379625
0.0374176
0.0368726
0.0363278
0.0357843
0.0352425
0.0347034
0.0341676
0.0336359
0.0331091
0.0325879
0.0320731
0.0315654
0.0310655
0.0305742
0.0300919
0.0296194
0.029157
0.0287054
0.0282649
0.0278358
0.0274183
0.0270126
0.0266188
0.026237
0.0258668
0.0255084
0.0251614
0.0248257
0.0245006
0.0241861
0.0238815
0.0235866
0.0233005
0.0230232
0.0227537
0.0224918
0.0222367
0.0219883
0.0217455
0.0215084
0.021276
0.0210484
0.0208246
0.0206047
0.020388
0.0201744
0.0199634
0.0197549
0.0195484
0.019344
0.019141
0.0189398
0.0187398
0.0185411
0.0183433
0.0181468
0.0179508
0.0177559
0.0175614
0.0173679
0.0171747
0.0169824
0.0167904
0.0165992
0.0164083
0.0162183
0.0160285
0.0158395
0.0156508
0.015463
0.0152755
0.0150889
0.0149027
0.0147174
0.0145324
0.0143484
0.0141647
0.0139821
0.0137998
0.0136185
0.0134375
0.0132576
0.013078
0.0128994
0.0127211
0.0125439
0.0123669
0.0121909
0.0120153
0.0118406
0.0116662
0.0114929
0.0113198
0.0111477
0.0109759
0.0108051
0.0106345
0.010465
0.0102958
0.0101275
0.00995956
0.00979261
0.00962588
0.00946018
0.00929468
0.0091302
0.0089659
0.00880261
0.00863948
0.00847735
0.00831534
0.00815434
0.00799343
0.00783351
0.00767367
0.0075148
0.00735599
0.00719814
0.00704036
0.00688351
0.00672672
0.00657087
0.00641505
0.00626018
0.00610532
0.0059514
0.00579747
0.00564446
0.0054914
0.00533923
0.00518697
0.00503556
0.00488401
0.00473327
0.00458234
0.00443219
0.00428183
0.00413223
0.00398242
0.00383338
0.00368416
0.00353575
0.0033872
0.00323954
0.00309175
0.00294497
0.00279805
0.00265224
0.00250623
0.00236143
0.00221631
0.00207248
0.00192816
0.00178515
0.00164148
0.00149908
0.00135588
0.00121387
0.00107094
0.000929084
0.000786278
0.000644404
0.000501622
0.000359609
0.000216666
7.32782e-05
0.0507927
0.0507604
0.0506803
0.0505681
0.0504224
0.0502423
0.0500299
0.0497878
0.0495174
0.0492212
0.0489007
0.0485582
0.0481952
0.0478136
0.0474149
0.0470006
0.0465719
0.0461301
0.0456763
0.0452115
0.0447365
0.0442523
0.0437596
0.043259
0.0427514
0.0422372
0.0417172
0.0411919
0.0406619
0.0401278
0.0395902
0.0390498
0.038507
0.0379628
0.0374174
0.0368719
0.0363265
0.0357825
0.0352401
0.0347005
0.0341641
0.0336319
0.0331044
0.0325827
0.0320674
0.0315592
0.0310588
0.030567
0.0300843
0.0296114
0.0291487
0.0286969
0.0282561
0.0278268
0.0274092
0.0270035
0.0266097
0.0262279
0.0258579
0.0254997
0.0251529
0.0248174
0.0244927
0.0241785
0.0238742
0.0235797
0.023294
0.0230171
0.022748
0.0224865
0.0222318
0.0219837
0.0217413
0.0215046
0.0212725
0.0210452
0.0208217
0.0206021
0.0203857
0.0201724
0.0199615
0.0197532
0.0195469
0.0193426
0.0191398
0.0189388
0.0187388
0.0185403
0.0183426
0.018146
0.0179501
0.0177553
0.0175608
0.0173673
0.0171742
0.0169819
0.0167899
0.0165988
0.0164079
0.0162178
0.016028
0.015839
0.0156503
0.0154625
0.015275
0.0150884
0.0149022
0.0147168
0.0145318
0.0143478
0.0141642
0.0139815
0.0137992
0.0136179
0.013437
0.013257
0.0130774
0.0128989
0.0127206
0.0125433
0.0123664
0.0121904
0.0120148
0.0118401
0.0116657
0.0114923
0.0113192
0.0111472
0.0109753
0.0108045
0.010634
0.0104645
0.0102953
0.010127
0.00995905
0.0097921
0.00962538
0.00945968
0.00929418
0.00912971
0.00896542
0.00880214
0.00863901
0.00847689
0.00831489
0.00815389
0.00799299
0.00783307
0.00767324
0.00751437
0.00735558
0.00719773
0.00703995
0.00688311
0.00672632
0.00657047
0.00641466
0.00625979
0.00610494
0.00595103
0.0057971
0.00564411
0.00549106
0.00533891
0.00518666
0.00503527
0.00488374
0.00473301
0.0045821
0.00443195
0.0042816
0.00413199
0.00398218
0.00383312
0.00368389
0.00353546
0.00338688
0.0032392
0.0030914
0.0029446
0.00279767
0.00265185
0.00250584
0.00236106
0.00221595
0.00207214
0.00192786
0.00178488
0.00164125
0.00149889
0.00135573
0.00121375
0.00107085
0.00092903
0.000786245
0.000644394
0.000501623
0.000359623
0.000216686
7.32976e-05
0.0508299
0.0507972
0.0507163
0.0506029
0.0504558
0.050274
0.0500598
0.0498156
0.0495433
0.0492451
0.0489227
0.0485784
0.0482137
0.0478306
0.0474303
0.0470147
0.0465847
0.0461419
0.045687
0.0452212
0.0447454
0.0442604
0.0437669
0.0432656
0.0427574
0.0422425
0.0417219
0.041196
0.0406654
0.0401308
0.0395925
0.0390515
0.0385081
0.0379632
0.0374171
0.0368709
0.0363248
0.0357801
0.035237
0.0346966
0.0341594
0.0336264
0.0330983
0.0325758
0.0320598
0.0315509
0.0310499
0.0305574
0.0300742
0.0296008
0.0291377
0.0286854
0.0282443
0.0278149
0.0273971
0.0269914
0.0265976
0.0262159
0.025846
0.0254881
0.0251415
0.0248064
0.0244821
0.0241683
0.0238645
0.0235705
0.0232854
0.0230089
0.0227404
0.0224794
0.0222253
0.0219777
0.0217358
0.0214995
0.0212679
0.021041
0.0208179
0.0205987
0.0203826
0.0201696
0.019959
0.019751
0.0195449
0.0193408
0.0191383
0.0189373
0.0187375
0.0185391
0.0183415
0.0181451
0.0179493
0.0177545
0.0175601
0.0173666
0.0171735
0.0169813
0.0167893
0.0165981
0.0164072
0.0162172
0.0160274
0.0158384
0.0156497
0.0154619
0.0152744
0.0150877
0.0149015
0.0147161
0.0145311
0.0143471
0.0141634
0.0139808
0.0137985
0.0136172
0.0134362
0.0132563
0.0130767
0.0128981
0.0127199
0.0125426
0.0123657
0.0121897
0.0120141
0.0118394
0.011665
0.0114916
0.0113185
0.0111465
0.0109746
0.0108038
0.0106333
0.0104638
0.0102946
0.0101263
0.00995837
0.00979142
0.0096247
0.00945901
0.00929353
0.00912906
0.00896478
0.0088015
0.00863839
0.00847627
0.00831429
0.00815329
0.00799241
0.00783249
0.00767267
0.00751381
0.00735502
0.00719718
0.0070394
0.00688257
0.00672578
0.00656994
0.00641413
0.00625927
0.00610443
0.00595053
0.00579662
0.00564364
0.00549061
0.00533848
0.00518626
0.00503489
0.00488337
0.00473266
0.00458176
0.00443163
0.00428128
0.00413167
0.00398185
0.00383277
0.00368352
0.00353506
0.00338646
0.00323875
0.00309092
0.0029441
0.00279716
0.00265134
0.00250533
0.00236055
0.00221548
0.0020717
0.00192745
0.00178452
0.00164094
0.00149864
0.00135552
0.0012136
0.00107074
0.000928961
0.000786203
0.00064438
0.000501623
0.000359639
0.000216706
7.3319e-05
0.0508766
0.0508435
0.0507614
0.0506466
0.0504976
0.0503137
0.0500971
0.0498505
0.0495757
0.049275
0.0489502
0.0486037
0.0482368
0.0478517
0.0474496
0.0470323
0.0466008
0.0461565
0.0457004
0.0452334
0.0447566
0.0442705
0.0437761
0.0432739
0.0427649
0.0422492
0.0417278
0.0412012
0.0406698
0.0401344
0.0395954
0.0390536
0.0385094
0.0379637
0.0374167
0.0368697
0.0363227
0.0357771
0.035233
0.0346917
0.0341536
0.0336197
0.0330906
0.0325672
0.0320502
0.0315405
0.0310386
0.0305455
0.0300615
0.0295875
0.0291238
0.0286711
0.0282296
0.0277999
0.0273819
0.0269761
0.0265823
0.0262008
0.0258311
0.0254735
0.0251273
0.0247926
0.0244688
0.0241556
0.0238524
0.023559
0.0232745
0.0229988
0.0227308
0.0224706
0.0222171
0.0219701
0.0217289
0.0214932
0.0212622
0.0210358
0.0208132
0.0205944
0.0203787
0.0201661
0.0199559
0.0197482
0.0195424
0.0193386
0.0191363
0.0189355
0.0187359
0.0185377
0.0183402
0.0181439
0.0179482
0.0177535
0.0175592
0.0173658
0.0171727
0.0169805
0.0167885
0.0165974
0.0164065
0.0162164
0.0160266
0.0158376
0.0156489
0.015461
0.0152735
0.0150869
0.0149006
0.0147152
0.0145302
0.0143462
0.0141625
0.0139798
0.0137975
0.0136162
0.0134353
0.0132554
0.0130758
0.0128972
0.012719
0.0125417
0.0123648
0.0121888
0.0120132
0.0118385
0.0116641
0.0114908
0.0113177
0.0111456
0.0109738
0.010803
0.0106324
0.0104629
0.0102937
0.0101255
0.00995751
0.00979057
0.00962387
0.00945818
0.00929271
0.00912825
0.00896398
0.00880071
0.00863761
0.0084755
0.00831353
0.00815255
0.00799168
0.00783177
0.00767196
0.00751311
0.00735433
0.00719649
0.00703873
0.00688189
0.00672511
0.00656927
0.00641348
0.00625862
0.00610379
0.0059499
0.00579601
0.00564305
0.00549005
0.00533794
0.00518575
0.00503441
0.00488292
0.00473224
0.00458136
0.00443123
0.00428089
0.00413127
0.00398144
0.00383235
0.00368306
0.00353457
0.00338594
0.00323819
0.00309033
0.00294348
0.00279651
0.00265068
0.00250468
0.00235992
0.00221487
0.00207113
0.00192694
0.00178407
0.00164055
0.00149832
0.00135527
0.00121341
0.00107061
0.000928878
0.000786154
0.000644369
0.000501627
0.000359664
0.000216733
7.33446e-05
0.050933
0.0508993
0.0508159
0.0506991
0.0505479
0.0503614
0.0501419
0.0498924
0.0496145
0.0493109
0.0489832
0.0486339
0.0482644
0.047877
0.0474726
0.0470533
0.04662
0.046174
0.0457163
0.045248
0.0447698
0.0442826
0.0437871
0.0432839
0.0427739
0.0422572
0.041735
0.0412074
0.0406751
0.0401388
0.0395989
0.0390562
0.0385109
0.0379643
0.0374163
0.0368682
0.0363202
0.0357734
0.0352283
0.0346858
0.0341466
0.0336115
0.0330813
0.0325568
0.0320388
0.031528
0.0310252
0.030531
0.0300462
0.0295715
0.0291071
0.0286539
0.0282119
0.0277819
0.0273637
0.0269578
0.026564
0.0261826
0.0258132
0.0254559
0.0251102
0.024776
0.0244528
0.0241403
0.0238378
0.0235452
0.0232615
0.0229865
0.0227194
0.02246
0.0222073
0.0219611
0.0217206
0.0214856
0.0212553
0.0210295
0.0208075
0.0205893
0.0203741
0.020162
0.0199522
0.0197449
0.0195395
0.0193359
0.0191339
0.0189334
0.018734
0.018536
0.0183387
0.0181425
0.0179469
0.0177523
0.0175581
0.0173647
0.0171717
0.0169795
0.0167876
0.0165964
0.0164055
0.0162155
0.0160256
0.0158366
0.0156479
0.01546
0.0152725
0.0150858
0.0148995
0.0147141
0.0145291
0.0143451
0.0141614
0.0139787
0.0137964
0.0136151
0.0134342
0.0132543
0.0130747
0.0128961
0.0127179
0.0125407
0.0123637
0.0121878
0.0120121
0.0118375
0.0116631
0.0114897
0.0113166
0.0111445
0.0109727
0.0108019
0.0106314
0.0104619
0.0102927
0.0101244
0.00995649
0.00978955
0.00962286
0.00945718
0.00929172
0.00912727
0.00896301
0.00879976
0.00863668
0.00847458
0.00831263
0.00815165
0.0079908
0.0078309
0.00767111
0.00751226
0.0073535
0.00719567
0.00703791
0.00688108
0.00672431
0.00656847
0.00641269
0.00625784
0.00610302
0.00594915
0.00579528
0.00564234
0.00548937
0.00533729
0.00518513
0.00503383
0.00488237
0.00473172
0.00458086
0.00443076
0.00428042
0.0041308
0.00398095
0.00383183
0.00368251
0.00353398
0.00338531
0.00323751
0.00308961
0.00294272
0.00279574
0.00264989
0.0025039
0.00235915
0.00221415
0.00207045
0.00192633
0.00178353
0.00164009
0.00149794
0.00135496
0.00121319
0.00107044
0.000928782
0.000786098
0.000644356
0.000501632
0.000359693
0.000216762
7.33755e-05
0.0509992
0.0509648
0.0508797
0.0507608
0.0506068
0.0504172
0.0501943
0.0499412
0.0496598
0.0493527
0.0490216
0.0486691
0.0482966
0.0479063
0.0474994
0.0470777
0.0466422
0.0461943
0.0457349
0.0452649
0.0447853
0.0442966
0.0437999
0.0432955
0.0427843
0.0422666
0.0417432
0.0412146
0.0406813
0.0401439
0.0396029
0.0390592
0.0385128
0.037965
0.0374158
0.0368665
0.0363172
0.0357692
0.0352228
0.034679
0.0341384
0.033602
0.0330705
0.0325447
0.0320254
0.0315134
0.0310094
0.0305142
0.0300284
0.0295527
0.0290876
0.0286337
0.0281912
0.0277608
0.0273423
0.0269363
0.0265426
0.0261613
0.0257922
0.0254353
0.0250902
0.0247566
0.0244341
0.0241224
0.0238208
0.023529
0.0232463
0.0229723
0.0227061
0.0224476
0.0221958
0.0219506
0.0217109
0.0214768
0.0212472
0.0210222
0.020801
0.0205834
0.0203688
0.0201572
0.0199479
0.019741
0.019536
0.0193329
0.0191312
0.018931
0.0187318
0.018534
0.0183369
0.0181409
0.0179454
0.0177509
0.0175568
0.0173635
0.0171705
0.0169784
0.0167865
0.0165954
0.0164045
0.0162144
0.0160246
0.0158355
0.0156468
0.0154589
0.0152713
0.0150846
0.0148983
0.0147129
0.0145279
0.0143438
0.0141601
0.0139774
0.0137951
0.0136138
0.0134329
0.013253
0.0130734
0.0128949
0.0127167
0.0125394
0.0123625
0.0121866
0.0120109
0.0118363
0.0116619
0.0114885
0.0113154
0.0111433
0.0109715
0.0108007
0.0106302
0.0104607
0.0102915
0.0101232
0.0099553
0.00978836
0.00962168
0.00945601
0.00929057
0.00912613
0.0089619
0.00879865
0.00863559
0.0084735
0.00831158
0.00815061
0.00798978
0.00782989
0.00767012
0.00751128
0.00735253
0.00719471
0.00703696
0.00688013
0.00672338
0.00656754
0.00641177
0.00625692
0.00610213
0.00594826
0.00579443
0.00564151
0.00548858
0.00533654
0.00518442
0.00503316
0.00488175
0.00473113
0.0045803
0.00443021
0.00427988
0.00413026
0.00398039
0.00383124
0.00368189
0.0035333
0.00338457
0.00323672
0.00308877
0.00294183
0.00279482
0.00264896
0.00250297
0.00235825
0.00221328
0.00206965
0.0019256
0.00178288
0.00163954
0.00149749
0.00135461
0.00121293
0.00107026
0.00092868
0.000786043
0.000644353
0.000501648
0.000359736
0.000216804
7.34135e-05
0.0510753
0.0510401
0.0509531
0.0508316
0.0506744
0.0504811
0.0502543
0.0499971
0.0497115
0.0494004
0.0490653
0.0487092
0.0483331
0.0479397
0.0475299
0.0471055
0.0466676
0.0462174
0.045756
0.0452841
0.0448029
0.0443126
0.0438145
0.0433086
0.0427962
0.0422772
0.0417527
0.0412228
0.0406884
0.0401498
0.0396076
0.0390626
0.0385149
0.0379658
0.0374153
0.0368646
0.0363139
0.0357644
0.0352165
0.0346712
0.0341291
0.0335912
0.0330581
0.0325308
0.0320101
0.0314966
0.0309913
0.0304948
0.0300079
0.0295312
0.0290652
0.0286105
0.0281674
0.0277366
0.0273178
0.0269117
0.026518
0.0261369
0.0257682
0.0254118
0.0250672
0.0247344
0.0244127
0.0241019
0.0238013
0.0235106
0.0232289
0.022956
0.0226909
0.0224335
0.0221828
0.0219386
0.0216999
0.0214667
0.0212381
0.0210139
0.0207935
0.0205766
0.0203627
0.0201517
0.0199431
0.0197367
0.0195321
0.0193294
0.019128
0.0189282
0.0187293
0.0185317
0.0183349
0.018139
0.0179437
0.0177493
0.0175553
0.0173622
0.0171692
0.0169771
0.0167852
0.0165941
0.0164033
0.0162132
0.0160233
0.0158342
0.0156455
0.0154575
0.01527
0.0150832
0.0148969
0.0147114
0.0145264
0.0143423
0.0141586
0.0139759
0.0137936
0.0136123
0.0134314
0.0132515
0.013072
0.0128934
0.0127152
0.012538
0.0123611
0.0121851
0.0120095
0.0118349
0.0116605
0.0114871
0.011314
0.0111419
0.0109701
0.0107993
0.0106288
0.0104593
0.0102901
0.0101218
0.00995393
0.00978699
0.00962034
0.00945467
0.00928926
0.00912482
0.00896061
0.00879738
0.00863434
0.00847227
0.00831037
0.00814942
0.00798861
0.00782874
0.00766898
0.00751015
0.00735142
0.0071936
0.00703587
0.00687905
0.0067223
0.00656647
0.00641071
0.00625587
0.0061011
0.00594725
0.00579344
0.00564056
0.00548767
0.00533567
0.0051836
0.00503239
0.00488102
0.00473044
0.00457966
0.00442959
0.00427927
0.00412964
0.00397976
0.00383056
0.00368116
0.00353252
0.00338373
0.0032358
0.0030878
0.00294081
0.00279377
0.00264788
0.0025019
0.0023572
0.00221229
0.00206873
0.00192476
0.00178215
0.00163892
0.00149699
0.00135421
0.00121264
0.00107006
0.000928567
0.000785985
0.000644352
0.000501669
0.000359785
0.000216852
7.34583e-05
0.0511617
0.0511256
0.0510363
0.0509117
0.0507508
0.0505533
0.0503219
0.05006
0.0497696
0.0494539
0.0491144
0.048754
0.0483741
0.0479771
0.0475639
0.0471366
0.0466959
0.0462432
0.0457796
0.0453056
0.0448225
0.0443305
0.0438308
0.0433234
0.0428096
0.0422892
0.0417633
0.0412321
0.0406963
0.0401564
0.0396128
0.0390665
0.0385173
0.0379668
0.0374147
0.0368625
0.0363101
0.0357591
0.0352094
0.0346624
0.0341186
0.0335789
0.0330442
0.0325151
0.0319928
0.0314777
0.0309709
0.030473
0.0299848
0.0295069
0.0290398
0.0285843
0.0281406
0.0277092
0.0272901
0.0268839
0.0264902
0.0261093
0.025741
0.0253851
0.0250413
0.0247093
0.0243886
0.0240788
0.0237793
0.0234898
0.0232093
0.0229376
0.0226738
0.0224177
0.0221681
0.0219251
0.0216876
0.0214555
0.0212278
0.0210046
0.0207851
0.0205691
0.020356
0.0201456
0.0199376
0.0197318
0.0195278
0.0193255
0.0191246
0.0189251
0.0187266
0.0185292
0.0183326
0.018137
0.0179419
0.0177476
0.0175537
0.0173606
0.0171678
0.0169757
0.0167839
0.0165928
0.0164019
0.0162118
0.0160219
0.0158328
0.015644
0.015456
0.0152684
0.0150816
0.0148953
0.0147098
0.0145248
0.0143406
0.014157
0.0139742
0.013792
0.0136107
0.0134298
0.0132499
0.0130704
0.0128918
0.0127136
0.0125364
0.0123595
0.0121836
0.012008
0.0118333
0.0116589
0.0114855
0.0113125
0.0111403
0.0109686
0.0107977
0.0106272
0.0104577
0.0102885
0.0101203
0.00995239
0.00978546
0.00961883
0.00945317
0.00928778
0.00912336
0.00895918
0.00879596
0.00863295
0.00847089
0.00830901
0.00814808
0.0079873
0.00782744
0.00766771
0.00750889
0.00735019
0.00719237
0.00703466
0.00687783
0.0067211
0.00656527
0.00640952
0.00625469
0.00609994
0.00594611
0.00579234
0.00563948
0.00548664
0.00533469
0.00518269
0.00503153
0.00488022
0.0047297
0.00457895
0.00442891
0.00427861
0.00412897
0.00397906
0.00382982
0.00368037
0.00353165
0.00338278
0.00323478
0.00308671
0.00293965
0.00279256
0.00264665
0.00250068
0.002356
0.00221115
0.00206767
0.00192381
0.00178132
0.00163821
0.00149642
0.00135377
0.00121233
0.00106985
0.000928458
0.000785937
0.000644371
0.000501709
0.000359857
0.000216918
7.35133e-05
0.0512585
0.0512213
0.0511294
0.0510013
0.0508362
0.0506338
0.0503972
0.0501299
0.0498342
0.0495132
0.0491687
0.0488037
0.0484194
0.0480184
0.0476015
0.0471708
0.0467271
0.0462717
0.0458056
0.0453294
0.0448442
0.0443502
0.0438489
0.0433397
0.0428244
0.0423024
0.0417751
0.0412424
0.0407052
0.0401638
0.0396187
0.0390708
0.03852
0.0379679
0.0374141
0.0368602
0.036306
0.0357531
0.0352016
0.0346527
0.0341069
0.0335653
0.0330287
0.0324977
0.0319735
0.0314566
0.0309481
0.0304486
0.0299589
0.0294797
0.0290115
0.0285551
0.0281105
0.0276786
0.0272592
0.0268527
0.0264592
0.0260786
0.0257107
0.0253554
0.0250124
0.0246813
0.0243617
0.0240531
0.0237549
0.0234666
0.0231875
0.0229172
0.0226548
0.0224
0.0221518
0.0219101
0.0216739
0.021443
0.0212165
0.0209944
0.0207758
0.0205607
0.0203485
0.0201389
0.0199316
0.0197264
0.019523
0.0193212
0.0191208
0.0189217
0.0187235
0.0185265
0.0183301
0.0181347
0.0179398
0.0177457
0.0175519
0.017359
0.0171662
0.0169742
0.0167824
0.0165913
0.0164004
0.0162103
0.0160204
0.0158312
0.0156424
0.0154544
0.0152667
0.0150799
0.0148935
0.014708
0.0145229
0.0143388
0.0141551
0.0139724
0.0137901
0.0136088
0.0134279
0.013248
0.0130685
0.01289
0.0127118
0.0125346
0.0123577
0.0121818
0.0120062
0.0118315
0.0116572
0.0114838
0.0113107
0.0111386
0.0109668
0.010796
0.0106255
0.010456
0.0102868
0.0101186
0.00995068
0.00978375
0.00961714
0.00945149
0.00928613
0.00912172
0.00895757
0.00879436
0.00863139
0.00846935
0.0083075
0.00814658
0.00798583
0.00782599
0.00766629
0.00750749
0.0073488
0.007191
0.0070333
0.00687648
0.00671976
0.00656393
0.0064082
0.00625337
0.00609864
0.00594483
0.0057911
0.00563828
0.00548549
0.0053336
0.00518166
0.00503056
0.00487933
0.00472886
0.00457816
0.00442815
0.00427787
0.00412822
0.00397829
0.003829
0.00367948
0.00353067
0.00338173
0.00323362
0.00308548
0.00293834
0.00279121
0.00264526
0.00249931
0.00235465
0.00220988
0.00206648
0.00192274
0.00178039
0.00163743
0.00149579
0.00135328
0.00121199
0.00106962
0.000928346
0.000785893
0.000644397
0.000501759
0.000359939
0.000216992
7.35776e-05
0.0513662
0.0513277
0.0512328
0.0511006
0.0509307
0.0507227
0.0504802
0.0502068
0.0499051
0.0495783
0.0492282
0.048858
0.0484688
0.0480635
0.0476425
0.0472083
0.0467612
0.0463028
0.045834
0.0453553
0.044868
0.0443719
0.0438686
0.0433576
0.0428406
0.0423169
0.0417881
0.0412537
0.0407149
0.0401719
0.0396251
0.0390756
0.0385231
0.0379692
0.0374135
0.0368577
0.0363015
0.0357466
0.035193
0.034642
0.0340941
0.0335503
0.0330115
0.0324784
0.0319522
0.0314333
0.030923
0.0304217
0.0299304
0.0294497
0.0289802
0.0285227
0.0280773
0.0276447
0.0272249
0.0268183
0.0264248
0.0260445
0.0256771
0.0253226
0.0249805
0.0246504
0.024332
0.0240247
0.0237279
0.0234411
0.0231635
0.0228948
0.0226339
0.0223807
0.022134
0.0218938
0.0216589
0.0214293
0.0212041
0.0209832
0.0207657
0.0205516
0.0203403
0.0201316
0.0199251
0.0197206
0.0195178
0.0193166
0.0191166
0.0189179
0.0187202
0.0185235
0.0183274
0.0181323
0.0179376
0.0177437
0.01755
0.0173572
0.0171645
0.0169725
0.0167807
0.0165897
0.0163988
0.0162086
0.0160187
0.0158295
0.0156407
0.0154526
0.0152649
0.015078
0.0148916
0.014706
0.0145209
0.0143367
0.0141531
0.0139703
0.0137881
0.0136067
0.0134259
0.013246
0.0130665
0.012888
0.0127099
0.0125327
0.0123558
0.0121799
0.0120043
0.0118296
0.0116553
0.0114819
0.0113088
0.0111367
0.0109649
0.0107941
0.0106236
0.010454
0.0102849
0.0101167
0.0099488
0.00978188
0.0096153
0.00944966
0.00928433
0.00911993
0.00895582
0.00879262
0.00862968
0.00846766
0.00830585
0.00814495
0.00798424
0.00782442
0.00766475
0.00750596
0.0073473
0.0071895
0.00703182
0.006875
0.00671829
0.00656246
0.00640674
0.00625192
0.00609721
0.00594342
0.00578973
0.00563695
0.00548423
0.0053324
0.00518054
0.00502952
0.00487836
0.00472796
0.00457733
0.00442735
0.00427709
0.00412743
0.00397747
0.00382812
0.00367853
0.00352962
0.00338058
0.00323236
0.00308412
0.00293688
0.0027897
0.00264371
0.00249776
0.00235314
0.00220844
0.00206514
0.00192154
0.00177935
0.00163656
0.0014951
0.00135276
0.00121163
0.0010694
0.000928249
0.000785872
0.000644456
0.000501839
0.000360052
0.000217092
7.36541e-05
0.051485
0.0514451
0.0513467
0.0512099
0.0510344
0.0508202
0.0505709
0.0502908
0.0499823
0.0496491
0.0492928
0.0489169
0.0485224
0.0481123
0.0476869
0.0472487
0.0467981
0.0463365
0.0458648
0.0453833
0.0448937
0.0443953
0.04389
0.043377
0.0428583
0.0423327
0.0418022
0.0412661
0.0407255
0.0401808
0.0396322
0.0390809
0.0385264
0.0379707
0.0374128
0.0368551
0.0362966
0.0357396
0.0351836
0.0346303
0.0340801
0.0335339
0.0329928
0.0324574
0.0319289
0.0314078
0.0308954
0.0303921
0.029899
0.0294168
0.0289459
0.0284872
0.0280408
0.0276076
0.0271873
0.0267805
0.0263871
0.0260071
0.0256403
0.0252865
0.0249455
0.0246165
0.0242995
0.0239936
0.0236984
0.0234132
0.0231373
0.0228703
0.0226111
0.0223596
0.0221145
0.0218759
0.0216426
0.0214145
0.0211907
0.020971
0.0207548
0.0205418
0.0203315
0.0201237
0.0199181
0.0197143
0.0195122
0.0193115
0.0191122
0.018914
0.0187167
0.0185203
0.0183246
0.0181297
0.0179352
0.0177415
0.017548
0.0173552
0.0171626
0.0169707
0.0167789
0.0165879
0.016397
0.0162068
0.0160168
0.0158276
0.0156387
0.0154506
0.0152628
0.0150759
0.0148894
0.0147038
0.0145187
0.0143345
0.0141508
0.013968
0.0137858
0.0136045
0.0134237
0.0132438
0.0130643
0.0128858
0.0127077
0.0125305
0.0123537
0.0121778
0.0120022
0.0118275
0.0116532
0.0114798
0.0113067
0.0111346
0.0109628
0.0107919
0.0106215
0.0104519
0.0102828
0.0101146
0.00994673
0.00977981
0.00961327
0.00944764
0.00928235
0.00911796
0.00895389
0.00879071
0.00862781
0.0084658
0.00830404
0.00814316
0.00798248
0.00782268
0.00766305
0.00750427
0.00734564
0.00718785
0.00703019
0.00687337
0.00671668
0.00656084
0.00640514
0.00625032
0.00609564
0.00594187
0.00578822
0.00563549
0.00548284
0.00533108
0.00517931
0.00502836
0.0048773
0.00472697
0.00457641
0.00442648
0.00427624
0.00412657
0.00397658
0.00382717
0.00367749
0.00352847
0.00337931
0.00323096
0.00308261
0.00293527
0.00278803
0.00264198
0.00249605
0.00235146
0.00220685
0.00206367
0.00192022
0.0017782
0.0016356
0.00149435
0.00135219
0.00121126
0.00106916
0.000928158
0.000785863
0.000644531
0.000501936
0.000360181
0.0002172
7.3739e-05
0.0516154
0.0515738
0.0514714
0.0513293
0.0511475
0.0509262
0.0506694
0.0503818
0.0500657
0.0497254
0.0493623
0.0489803
0.04858
0.0481647
0.0477346
0.0472921
0.0468376
0.0463726
0.0458978
0.0454135
0.0449213
0.0444204
0.0439131
0.0433979
0.0428773
0.0423498
0.0418174
0.0412794
0.040737
0.0401905
0.0396399
0.0390867
0.0385301
0.0379723
0.0374122
0.0368522
0.0362914
0.035732
0.0351735
0.0346177
0.0340649
0.0335161
0.0329725
0.0324345
0.0319036
0.03138
0.0308654
0.0303599
0.0298649
0.0293809
0.0289084
0.0284484
0.028001
0.027567
0.0271462
0.0267393
0.026346
0.0259664
0.0256002
0.0252473
0.0249073
0.0245797
0.0242641
0.0239598
0.0236663
0.0233829
0.0231089
0.0228438
0.0225864
0.0223368
0.0220935
0.0218567
0.021625
0.0213985
0.0211762
0.0209579
0.020743
0.0205312
0.0203221
0.0201152
0.0199105
0.0197075
0.0195062
0.0193062
0.0191075
0.0189097
0.0187129
0.0185169
0.0183215
0.0181269
0.0179326
0.0177391
0.0175458
0.0173532
0.0171606
0.0169688
0.016777
0.016586
0.0163951
0.0162049
0.0160149
0.0158256
0.0156367
0.0154484
0.0152607
0.0150736
0.0148871
0.0147014
0.0145163
0.014332
0.0141484
0.0139656
0.0137834
0.013602
0.0134213
0.0132414
0.013062
0.0128835
0.0127054
0.0125282
0.0123514
0.0121755
0.012
0.0118253
0.011651
0.0114776
0.0113045
0.0111323
0.0109605
0.0107897
0.0106192
0.0104497
0.0102805
0.0101123
0.00994451
0.0097776
0.00961109
0.00944547
0.00928022
0.00911584
0.00895181
0.00878865
0.0086258
0.00846381
0.00830209
0.00814124
0.0079806
0.00782082
0.00766123
0.00750247
0.00734387
0.00718609
0.00702845
0.00687163
0.00671495
0.0065591
0.00640342
0.00624859
0.00609394
0.00594018
0.00578659
0.0056339
0.00548133
0.00532965
0.00517798
0.00502713
0.00487618
0.00472594
0.00457546
0.00442558
0.00427538
0.0041257
0.00397568
0.00382618
0.00367641
0.00352724
0.00337796
0.00322945
0.00308097
0.0029335
0.00278618
0.00264007
0.00249414
0.00234958
0.00220508
0.00206203
0.00191876
0.00177694
0.00163456
0.00149354
0.00135159
0.00121088
0.00106894
0.000928101
0.000785895
0.000644657
0.000502078
0.000360354
0.000217341
7.38383e-05
0.0517579
0.0517143
0.0516073
0.0514592
0.0512702
0.051041
0.0507758
0.0504797
0.0501554
0.0498073
0.0494368
0.0490481
0.0486415
0.0482206
0.0477853
0.0473384
0.0468798
0.0464111
0.0459329
0.0454456
0.0449508
0.0444473
0.0439378
0.0434203
0.0428977
0.0423681
0.0418338
0.0412938
0.0407495
0.0402009
0.0396483
0.039093
0.0385341
0.0379742
0.0374116
0.0368493