/*--------------------------------*- C++ -*----------------------------------*\
| =========                 |                                                 |
| \\      /  F ield         | OpenFOAM: The Open Source CFD Toolbox           |
|  \\    /   O peration     | Version:  2412                                  |
|   \\  /    A nd           | Website:  www.openfoam.com                      |
|    \\/     M anipulation  |                                                 |
\*---------------------------------------------------------------------------*/
FoamFile
{
    version     2.0;
    format      ascii;
    arch        "LSB;label=32;scalar=64";
    class       surfaceScalarField;
    location    "1000";
    object      phi;
}
// * * * * * * * * * * * * * * * * * * * * * * * * * * * * * * * * * * * * * //

dimensions      [0 3 -1 0 0 0 0];

oriented        oriented;

internalField   nonuniform List<scalar> 
15760
(
2.50005e-07
-4.59009e-12
2.50018e-07
-1.38846e-11
2.50041e-07
-2.29771e-11
2.50073e-07
-3.17644e-11
2.50114e-07
-4.02991e-11
2.50162e-07
-4.84048e-11
2.50218e-07
-5.6088e-11
2.50281e-07
-6.33105e-11
2.50351e-07
-7.00229e-11
2.50428e-07
-7.62895e-11
2.5051e-07
-8.2033e-11
2.50597e-07
-8.73616e-11
2.50689e-07
-9.22205e-11
2.50786e-07
-9.66849e-11
2.50887e-07
-1.00783e-10
2.50991e-07
-1.04484e-10
2.51099e-07
-1.0795e-10
2.5121e-07
-1.10998e-10
2.51324e-07
-1.1394e-10
2.51441e-07
-1.16444e-10
2.51559e-07
-1.18943e-10
2.5168e-07
-1.20999e-10
2.51804e-07
-1.23108e-10
2.51928e-07
-1.24798e-10
2.52055e-07
-1.26543e-10
2.52183e-07
-1.27928e-10
2.52312e-07
-1.29322e-10
2.52443e-07
-1.30437e-10
2.52574e-07
-1.31488e-10
2.52706e-07
-1.32339e-10
2.52839e-07
-1.33054e-10
2.52973e-07
-1.33627e-10
2.53107e-07
-1.34012e-10
2.53241e-07
-1.34277e-10
2.53376e-07
-1.34338e-10
2.5351e-07
-1.34261e-10
2.53644e-07
-1.33998e-10
2.53778e-07
-1.33549e-10
2.53911e-07
-1.32955e-10
2.54043e-07
-1.32118e-10
2.54174e-07
-1.31181e-10
2.54304e-07
-1.29954e-10
2.54432e-07
-1.28663e-10
2.54559e-07
-1.2706e-10
2.54685e-07
-1.25413e-10
2.54808e-07
-1.2346e-10
2.5493e-07
-1.2147e-10
2.55049e-07
-1.19205e-10
2.55166e-07
-1.16907e-10
2.5528e-07
-1.14375e-10
2.55392e-07
-1.11821e-10
2.55501e-07
-1.09079e-10
2.55608e-07
-1.06337e-10
2.55711e-07
-1.03448e-10
2.55812e-07
-1.00596e-10
2.55909e-07
-9.76306e-11
2.56004e-07
-9.47467e-11
2.56096e-07
-9.17792e-11
2.56185e-07
-8.89369e-11
2.56271e-07
-8.60424e-11
2.56354e-07
-8.33073e-11
2.56435e-07
-8.05547e-11
2.56513e-07
-7.79822e-11
2.56588e-07
-7.54284e-11
2.56661e-07
-7.30628e-11
2.56732e-07
-7.07488e-11
2.568e-07
-6.86221e-11
2.56867e-07
-6.65696e-11
2.56932e-07
-6.47005e-11
2.56995e-07
-6.29127e-11
2.57056e-07
-6.13054e-11
2.57116e-07
-5.97695e-11
2.57174e-07
-5.84137e-11
2.57231e-07
-5.71056e-11
2.57287e-07
-5.59787e-11
2.57342e-07
-5.48683e-11
2.57396e-07
-5.39392e-11
2.57449e-07
-5.29964e-11
2.57501e-07
-5.2231e-11
2.57553e-07
-5.143e-11
2.57603e-07
-5.07964e-11
2.57654e-07
-5.0118e-11
2.57703e-07
-4.95911e-11
2.57752e-07
-4.90227e-11
2.57801e-07
-4.8586e-11
2.57849e-07
-4.81202e-11
2.57897e-07
-4.77648e-11
2.57944e-07
-4.7396e-11
2.57991e-07
-4.71177e-11
2.58038e-07
-4.68391e-11
2.58085e-07
-4.66343e-11
2.58131e-07
-4.6435e-11
2.58177e-07
-4.62973e-11
2.58224e-07
-4.61613e-11
2.5827e-07
-4.60787e-11
2.58316e-07
-4.5985e-11
2.58362e-07
-4.59402e-11
2.58407e-07
-4.5865e-11
2.58453e-07
-4.58365e-11
2.58499e-07
-4.5756e-11
2.58545e-07
-4.57216e-11
2.5859e-07
-4.56152e-11
2.58636e-07
-4.55549e-11
2.58681e-07
-4.54084e-11
2.58727e-07
-4.53078e-11
2.58772e-07
-4.5115e-11
2.58817e-07
-4.49673e-11
2.58861e-07
-4.47305e-11
2.58906e-07
-4.4537e-11
2.5895e-07
-4.42657e-11
2.58994e-07
-4.40357e-11
2.59038e-07
-4.37445e-11
2.59082e-07
-4.34924e-11
2.59125e-07
-4.31983e-11
2.59168e-07
-4.29419e-11
2.5921e-07
-4.26611e-11
2.59253e-07
-4.2418e-11
2.59295e-07
-4.21641e-11
2.59337e-07
-4.19499e-11
2.59379e-07
-4.17321e-11
2.5942e-07
-4.1558e-11
2.59462e-07
-4.13811e-11
2.59503e-07
-4.12533e-11
2.59544e-07
-4.11177e-11
2.59585e-07
-4.10371e-11
2.59626e-07
-4.09395e-11
2.59667e-07
-4.09019e-11
2.59708e-07
-4.08359e-11
2.59748e-07
-4.08327e-11
2.59789e-07
-4.07895e-11
2.5983e-07
-4.08087e-11
2.59871e-07
-4.0778e-11
2.59912e-07
-4.0805e-11
2.59952e-07
-4.07753e-11
2.59993e-07
-4.07947e-11
2.60034e-07
-4.07545e-11
2.60075e-07
-4.07517e-11
2.60115e-07
-4.06905e-11
2.60156e-07
-4.06538e-11
2.60197e-07
-4.05632e-11
2.60237e-07
-4.04849e-11
2.60277e-07
-4.03596e-11
2.60318e-07
-4.02372e-11
2.60358e-07
-4.00751e-11
2.60398e-07
-3.99112e-11
2.60437e-07
-3.97131e-11
2.60477e-07
-3.95145e-11
2.60516e-07
-3.92835e-11
2.60555e-07
-3.90594e-11
2.60594e-07
-3.88004e-11
2.60633e-07
-3.8561e-11
2.60671e-07
-3.82806e-11
2.60709e-07
-3.80366e-11
2.60747e-07
-3.77436e-11
2.60784e-07
-3.75059e-11
2.60821e-07
-3.72121e-11
2.60858e-07
-3.69918e-11
2.60895e-07
-3.67121e-11
2.60932e-07
-3.65207e-11
2.60968e-07
-3.62719e-11
2.61004e-07
-3.61201e-11
2.6104e-07
-3.59177e-11
2.61076e-07
-3.58131e-11
2.61111e-07
-3.56672e-11
2.61147e-07
-3.56115e-11
2.61183e-07
-3.55228e-11
2.61218e-07
-3.55097e-11
2.61254e-07
-3.54675e-11
2.61289e-07
-3.54823e-11
2.61325e-07
-3.54657e-11
2.6136e-07
-3.54878e-11
2.61395e-07
-3.54708e-11
2.61431e-07
-3.54784e-11
2.61466e-07
-3.54375e-11
2.61502e-07
-3.54137e-11
2.61537e-07
-3.53353e-11
2.61572e-07
-3.52733e-11
2.61608e-07
-3.51594e-11
2.61643e-07
-3.50645e-11
2.61678e-07
-3.49333e-11
2.61712e-07
-3.48219e-11
2.61747e-07
-3.47033e-11
2.61782e-07
-3.45974e-11
2.61816e-07
-3.45247e-11
2.61851e-07
-3.44453e-11
2.61885e-07
-3.44449e-11
2.6192e-07
-3.44056e-11
2.61954e-07
-3.44885e-11
2.61988e-07
-3.44912e-11
2.62023e-07
-3.46492e-11
2.62058e-07
-3.46841e-11
2.62093e-07
-3.48905e-11
2.62128e-07
-3.49399e-11
2.62163e-07
-3.51553e-11
2.62198e-07
-3.51996e-11
2.62233e-07
-3.53809e-11
2.62269e-07
-3.54051e-11
2.62304e-07
-3.55165e-11
2.6234e-07
-3.55189e-11
-3.55389e-11
2.50005e-07
-9.2655e-12
2.50019e-07
-2.77474e-11
2.50042e-07
-4.60142e-11
2.50073e-07
-6.36092e-11
2.50114e-07
-8.06928e-11
2.50162e-07
-9.69173e-11
2.50219e-07
-1.12291e-10
2.50282e-07
-1.26741e-10
2.50352e-07
-1.40164e-10
2.50429e-07
-1.52698e-10
2.50511e-07
-1.64178e-10
2.50598e-07
-1.74832e-10
2.5069e-07
-1.84541e-10
2.50787e-07
-1.93465e-10
2.50888e-07
-2.01653e-10
2.50993e-07
-2.0905e-10
2.51101e-07
-2.15974e-10
2.51212e-07
-2.22064e-10
2.51326e-07
-2.27945e-10
2.51442e-07
-2.32944e-10
2.51561e-07
-2.37943e-10
2.51682e-07
-2.42048e-10
2.51805e-07
-2.46265e-10
2.5193e-07
-2.4964e-10
2.52057e-07
-2.5313e-10
2.52185e-07
-2.55897e-10
2.52314e-07
-2.58685e-10
2.52445e-07
-2.60913e-10
2.52576e-07
-2.63014e-10
2.52709e-07
-2.64717e-10
2.52842e-07
-2.66145e-10
2.52975e-07
-2.67293e-10
2.53109e-07
-2.68062e-10
2.53244e-07
-2.68595e-10
2.53378e-07
-2.68717e-10
2.53512e-07
-2.68566e-10
2.53646e-07
-2.6804e-10
2.5378e-07
-2.67145e-10
2.53913e-07
-2.65958e-10
2.54045e-07
-2.64284e-10
2.54176e-07
-2.62411e-10
2.54306e-07
-2.59956e-10
2.54435e-07
-2.57375e-10
2.54562e-07
-2.54166e-10
2.54688e-07
-2.50872e-10
2.54811e-07
-2.46963e-10
2.54933e-07
-2.42982e-10
2.55052e-07
-2.38447e-10
2.55169e-07
-2.33847e-10
2.55283e-07
-2.28781e-10
2.55395e-07
-2.23668e-10
2.55504e-07
-2.1818e-10
2.55611e-07
-2.12692e-10
2.55714e-07
-2.06909e-10
2.55815e-07
-2.01201e-10
2.55912e-07
-1.95264e-10
2.56007e-07
-1.89491e-10
2.56099e-07
-1.83551e-10
2.56188e-07
-1.77863e-10
2.56274e-07
-1.72069e-10
2.56357e-07
-1.66596e-10
2.56438e-07
-1.61087e-10
2.56516e-07
-1.55939e-10
2.56591e-07
-1.50829e-10
2.56664e-07
-1.46096e-10
2.56735e-07
-1.41467e-10
2.56803e-07
-1.37213e-10
2.5687e-07
-1.33107e-10
2.56935e-07
-1.29369e-10
2.56997e-07
-1.25794e-10
2.57059e-07
-1.2258e-10
2.57118e-07
-1.19509e-10
2.57177e-07
-1.16798e-10
2.57234e-07
-1.14182e-10
2.5729e-07
-1.1193e-10
2.57345e-07
-1.09709e-10
2.57399e-07
-1.07853e-10
2.57452e-07
-1.05967e-10
2.57504e-07
-1.04437e-10
2.57555e-07
-1.02835e-10
2.57606e-07
-1.01569e-10
2.57656e-07
-1.00212e-10
2.57706e-07
-9.91602e-11
2.57755e-07
-9.80233e-11
2.57803e-07
-9.71528e-11
2.57851e-07
-9.62222e-11
2.57899e-07
-9.55149e-11
2.57946e-07
-9.47796e-11
2.57994e-07
-9.42271e-11
2.5804e-07
-9.36735e-11
2.58087e-07
-9.32685e-11
2.58133e-07
-9.28744e-11
2.5818e-07
-9.26034e-11
2.58226e-07
-9.2336e-11
2.58272e-07
-9.2175e-11
2.58318e-07
-9.19916e-11
2.58364e-07
-9.19052e-11
2.5841e-07
-9.17573e-11
2.58456e-07
-9.17025e-11
2.58502e-07
-9.15418e-11
2.58547e-07
-9.14735e-11
2.58593e-07
-9.12588e-11
2.58639e-07
-9.11369e-11
2.58684e-07
-9.08396e-11
2.58729e-07
-9.06353e-11
2.58774e-07
-9.02434e-11
2.58819e-07
-8.99432e-11
2.58864e-07
-8.94616e-11
2.58909e-07
-8.90686e-11
2.58953e-07
-8.85168e-11
2.58997e-07
-8.80496e-11
2.59041e-07
-8.74575e-11
2.59084e-07
-8.69456e-11
2.59127e-07
-8.63473e-11
2.5917e-07
-8.58263e-11
2.59213e-07
-8.5255e-11
2.59255e-07
-8.47608e-11
2.59297e-07
-8.42437e-11
2.59339e-07
-8.38075e-11
2.59381e-07
-8.33637e-11
2.59422e-07
-8.30086e-11
2.59463e-07
-8.26478e-11
2.59504e-07
-8.23866e-11
2.59545e-07
-8.211e-11
2.59586e-07
-8.19451e-11
2.59627e-07
-8.17462e-11
2.59668e-07
-8.16696e-11
2.59709e-07
-8.15362e-11
2.59749e-07
-8.15312e-11
2.5979e-07
-8.14462e-11
2.59831e-07
-8.14888e-11
2.59871e-07
-8.14315e-11
2.59912e-07
-8.14929e-11
2.59953e-07
-8.14404e-11
2.59993e-07
-8.14895e-11
2.60034e-07
-8.14186e-11
2.60075e-07
-8.14259e-11
2.60115e-07
-8.13151e-11
2.60156e-07
-8.12562e-11
2.60196e-07
-8.10881e-11
2.60237e-07
-8.09471e-11
2.60277e-07
-8.07104e-11
2.60318e-07
-8.04814e-11
2.60358e-07
-8.0171e-11
2.60398e-07
-7.98585e-11
2.60437e-07
-7.94754e-11
2.60477e-07
-7.90919e-11
2.60516e-07
-7.86416e-11
2.60555e-07
-7.82051e-11
2.60594e-07
-7.76969e-11
2.60633e-07
-7.72275e-11
2.60671e-07
-7.6674e-11
2.6071e-07
-7.6193e-11
2.60747e-07
-7.56115e-11
2.60785e-07
-7.51403e-11
2.60822e-07
-7.45543e-11
2.6086e-07
-7.41156e-11
2.60896e-07
-7.35551e-11
2.60933e-07
-7.31723e-11
2.60969e-07
-7.26711e-11
2.61006e-07
-7.23659e-11
2.61042e-07
-7.19558e-11
2.61078e-07
-7.1744e-11
2.61113e-07
-7.1446e-11
2.61149e-07
-7.13316e-11
2.61185e-07
-7.11479e-11
2.6122e-07
-7.11184e-11
2.61256e-07
-7.10281e-11
2.61292e-07
-7.10545e-11
2.61327e-07
-7.1016e-11
2.61363e-07
-7.10568e-11
2.61398e-07
-7.10181e-11
2.61434e-07
-7.10299e-11
2.61469e-07
-7.09434e-11
2.61505e-07
-7.08923e-11
2.6154e-07
-7.07307e-11
2.61575e-07
-7.06032e-11
2.61611e-07
-7.03702e-11
2.61646e-07
-7.01774e-11
2.61681e-07
-6.99094e-11
2.61716e-07
-6.96842e-11
2.6175e-07
-6.94415e-11
2.61785e-07
-6.92284e-11
2.6182e-07
-6.90778e-11
2.61854e-07
-6.89189e-11
2.61888e-07
-6.89139e-11
2.61923e-07
-6.88356e-11
2.61957e-07
-6.89991e-11
2.61992e-07
-6.90046e-11
2.62027e-07
-6.93202e-11
2.62061e-07
-6.93891e-11
2.62096e-07
-6.98032e-11
2.62131e-07
-6.98993e-11
2.62166e-07
-7.03331e-11
2.62202e-07
-7.04167e-11
2.62237e-07
-7.07833e-11
2.62272e-07
-7.08247e-11
2.62308e-07
-7.10498e-11
2.62343e-07
-7.10392e-11
-7.10792e-11
2.50005e-07
-1.39591e-11
2.50019e-07
-4.16908e-11
2.50042e-07
-6.91698e-11
2.50074e-07
-9.56154e-11
2.50114e-07
-1.2128e-10
2.50163e-07
-1.45649e-10
2.5022e-07
-1.68726e-10
2.50283e-07
-1.90416e-10
2.50354e-07
-2.10548e-10
2.5043e-07
-2.29349e-10
2.50513e-07
-2.46553e-10
2.506e-07
-2.62526e-10
2.50693e-07
-2.77067e-10
2.5079e-07
-2.9044e-10
2.50891e-07
-3.027e-10
2.50996e-07
-3.13779e-10
2.51104e-07
-3.24148e-10
2.51215e-07
-3.33265e-10
2.51329e-07
-3.42076e-10
2.51446e-07
-3.49555e-10
2.51565e-07
-3.5705e-10
2.51686e-07
-3.63189e-10
2.51809e-07
-3.69516e-10
2.51934e-07
-3.74565e-10
2.52061e-07
-3.79802e-10
2.52189e-07
-3.83944e-10
2.52318e-07
-3.88127e-10
2.52449e-07
-3.91467e-10
2.5258e-07
-3.94617e-10
2.52713e-07
-3.97176e-10
2.52846e-07
-3.99314e-10
2.5298e-07
-4.01045e-10
2.53114e-07
-4.02194e-10
2.53248e-07
-4.03004e-10
2.53383e-07
-4.03183e-10
2.53517e-07
-4.02963e-10
2.53651e-07
-4.02173e-10
2.53785e-07
-4.00834e-10
2.53918e-07
-3.99054e-10
2.5405e-07
-3.96543e-10
2.54182e-07
-3.93737e-10
2.54312e-07
-3.9005e-10
2.54441e-07
-3.86181e-10
2.54568e-07
-3.81361e-10
2.54693e-07
-3.7642e-10
2.54817e-07
-3.70548e-10
2.54939e-07
-3.64574e-10
2.55058e-07
-3.57763e-10
2.55175e-07
-3.50856e-10
2.55289e-07
-3.43247e-10
2.55401e-07
-3.35567e-10
2.5551e-07
-3.27325e-10
2.55617e-07
-3.19081e-10
2.5572e-07
-3.10395e-10
2.55821e-07
-3.0182e-10
2.55919e-07
-2.92902e-10
2.56013e-07
-2.84233e-10
2.56105e-07
-2.75309e-10
2.56194e-07
-2.66768e-10
2.5628e-07
-2.58065e-10
2.56363e-07
-2.49847e-10
2.56444e-07
-2.41573e-10
2.56522e-07
-2.33846e-10
2.56597e-07
-2.26174e-10
2.5667e-07
-2.1907e-10
2.56741e-07
-2.12123e-10
2.56809e-07
-2.05738e-10
2.56876e-07
-1.9958e-10
2.5694e-07
-1.93971e-10
2.57003e-07
-1.88611e-10
2.57064e-07
-1.8379e-10
2.57124e-07
-1.79187e-10
2.57182e-07
-1.75123e-10
2.57239e-07
-1.71202e-10
2.57295e-07
-1.67827e-10
2.5735e-07
-1.64497e-10
2.57404e-07
-1.61716e-10
2.57457e-07
-1.58887e-10
2.57509e-07
-1.56598e-10
2.5756e-07
-1.54193e-10
2.57611e-07
-1.52301e-10
2.57661e-07
-1.50263e-10
2.57711e-07
-1.48692e-10
2.57759e-07
-1.46988e-10
2.57808e-07
-1.45688e-10
2.57856e-07
-1.44295e-10
2.57904e-07
-1.43241e-10
2.57951e-07
-1.42144e-10
2.57998e-07
-1.41323e-10
2.58045e-07
-1.40501e-10
2.58092e-07
-1.39902e-10
2.58138e-07
-1.3932e-10
2.58185e-07
-1.38923e-10
2.58231e-07
-1.38531e-10
2.58277e-07
-1.38297e-10
2.58323e-07
-1.3803e-10
2.58369e-07
-1.37907e-10
2.58415e-07
-1.3769e-10
2.58461e-07
-1.37612e-10
2.58507e-07
-1.37373e-10
2.58552e-07
-1.37272e-10
2.58598e-07
-1.36947e-10
2.58644e-07
-1.36762e-10
2.58689e-07
-1.36309e-10
2.58734e-07
-1.35998e-10
2.5878e-07
-1.35399e-10
2.58825e-07
-1.3494e-10
2.58869e-07
-1.34204e-10
2.58914e-07
-1.33604e-10
2.58958e-07
-1.3276e-10
2.59002e-07
-1.32046e-10
2.59046e-07
-1.31139e-10
2.59089e-07
-1.30356e-10
2.59132e-07
-1.2944e-10
2.59175e-07
-1.28642e-10
2.59218e-07
-1.27766e-10
2.5926e-07
-1.27008e-10
2.59302e-07
-1.26213e-10
2.59344e-07
-1.25542e-10
2.59385e-07
-1.24858e-10
2.59426e-07
-1.2431e-10
2.59468e-07
-1.23752e-10
2.59508e-07
-1.23346e-10
2.59549e-07
-1.22917e-10
2.5959e-07
-1.22659e-10
2.59631e-07
-1.2235e-10
2.59671e-07
-1.22229e-10
2.59712e-07
-1.22023e-10
2.59752e-07
-1.22014e-10
2.59793e-07
-1.21886e-10
2.59833e-07
-1.21956e-10
2.59874e-07
-1.21876e-10
2.59914e-07
-1.2198e-10
2.59954e-07
-1.21914e-10
2.59995e-07
-1.22007e-10
2.60035e-07
-1.21919e-10
2.60076e-07
-1.21954e-10
2.60117e-07
-1.21812e-10
2.60157e-07
-1.21753e-10
2.60197e-07
-1.21529e-10
2.60238e-07
-1.21349e-10
2.60278e-07
-1.21024e-10
2.60318e-07
-1.20714e-10
2.60359e-07
-1.20278e-10
2.60398e-07
-1.19842e-10
2.60438e-07
-1.19296e-10
2.60478e-07
-1.1875e-10
2.60517e-07
-1.18101e-10
2.60557e-07
-1.17472e-10
2.60596e-07
-1.16731e-10
2.60635e-07
-1.16047e-10
2.60673e-07
-1.15233e-10
2.60711e-07
-1.14526e-10
2.6075e-07
-1.13664e-10
2.60787e-07
-1.12966e-10
2.60825e-07
-1.1209e-10
2.60862e-07
-1.11436e-10
2.60899e-07
-1.10593e-10
2.60936e-07
-1.10017e-10
2.60973e-07
-1.09259e-10
2.61009e-07
-1.08797e-10
2.61045e-07
-1.08173e-10
2.61081e-07
-1.07849e-10
2.61117e-07
-1.07392e-10
2.61153e-07
-1.07213e-10
2.61189e-07
-1.06927e-10
2.61225e-07
-1.06876e-10
2.6126e-07
-1.06732e-10
2.61296e-07
-1.06764e-10
2.61332e-07
-1.06698e-10
2.61368e-07
-1.06752e-10
2.61403e-07
-1.06685e-10
2.61439e-07
-1.06695e-10
2.61475e-07
-1.06556e-10
2.6151e-07
-1.06471e-10
2.61546e-07
-1.06217e-10
2.61581e-07
-1.06016e-10
2.61616e-07
-1.05653e-10
2.61651e-07
-1.05354e-10
2.61686e-07
-1.04938e-10
2.61721e-07
-1.04591e-10
2.61756e-07
-1.04214e-10
2.61791e-07
-1.03887e-10
2.61825e-07
-1.0365e-10
2.6186e-07
-1.03407e-10
2.61894e-07
-1.03392e-10
2.61929e-07
-1.03272e-10
2.61963e-07
-1.03515e-10
2.61998e-07
-1.03523e-10
2.62033e-07
-1.03999e-10
2.62067e-07
-1.04102e-10
2.62102e-07
-1.04729e-10
2.62137e-07
-1.04872e-10
2.62172e-07
-1.0553e-10
2.62208e-07
-1.05653e-10
2.62243e-07
-1.06209e-10
2.62278e-07
-1.06267e-10
2.62314e-07
-1.06607e-10
2.6235e-07
-1.06583e-10
-1.06632e-10
2.50005e-07
-1.86895e-11
2.50019e-07
-5.57543e-11
2.50042e-07
-9.25111e-11
2.50074e-07
-1.27867e-10
2.50115e-07
-1.6216e-10
2.50164e-07
-1.94711e-10
2.50221e-07
-2.2551e-10
2.50285e-07
-2.54457e-10
2.50356e-07
-2.81291e-10
2.50433e-07
-3.06362e-10
2.50516e-07
-3.29267e-10
2.50604e-07
-3.50551e-10
2.50696e-07
-3.69897e-10
2.50794e-07
-3.87703e-10
2.50895e-07
-4.04009e-10
2.51e-07
-4.1875e-10
2.51108e-07
-4.32546e-10
2.5122e-07
-4.44667e-10
2.51334e-07
-4.56399e-10
2.51451e-07
-4.66335e-10
2.5157e-07
-4.76322e-10
2.51691e-07
-4.84474e-10
2.51815e-07
-4.92912e-10
2.5194e-07
-4.99617e-10
2.52067e-07
-5.06604e-10
2.52195e-07
-5.12111e-10
2.52324e-07
-5.17689e-10
2.52455e-07
-5.22138e-10
2.52587e-07
-5.26334e-10
2.52719e-07
-5.29755e-10
2.52853e-07
-5.32597e-10
2.52987e-07
-5.34921e-10
2.53121e-07
-5.36444e-10
2.53255e-07
-5.37541e-10
2.5339e-07
-5.37773e-10
2.53525e-07
-5.37494e-10
2.53659e-07
-5.3644e-10
2.53793e-07
-5.34662e-10
2.53926e-07
-5.32293e-10
2.54058e-07
-5.28944e-10
2.5419e-07
-5.25209e-10
2.5432e-07
-5.20285e-10
2.54449e-07
-5.15132e-10
2.54576e-07
-5.08693e-10
2.54702e-07
-5.02104e-10
2.54826e-07
-4.9426e-10
2.54947e-07
-4.86287e-10
2.55067e-07
-4.77191e-10
2.55184e-07
-4.67966e-10
2.55298e-07
-4.57804e-10
2.5541e-07
-4.47544e-10
2.5552e-07
-4.36535e-10
2.55626e-07
-4.2552e-10
2.5573e-07
-4.13918e-10
2.5583e-07
-4.02461e-10
2.55928e-07
-3.90548e-10
2.56023e-07
-3.78968e-10
2.56114e-07
-3.67046e-10
2.56203e-07
-3.55639e-10
2.56289e-07
-3.44012e-10
2.56372e-07
-3.33042e-10
2.56453e-07
-3.21991e-10
2.56531e-07
-3.11677e-10
2.56606e-07
-3.01434e-10
2.56679e-07
-2.91954e-10
2.56749e-07
-2.82684e-10
2.56818e-07
-2.74165e-10
2.56884e-07
-2.65954e-10
2.56949e-07
-2.58472e-10
2.57011e-07
-2.51329e-10
2.57072e-07
-2.44901e-10
2.57132e-07
-2.38769e-10
2.5719e-07
-2.33354e-10
2.57247e-07
-2.28131e-10
2.57303e-07
-2.23638e-10
2.57358e-07
-2.19202e-10
2.57411e-07
-2.15504e-10
2.57464e-07
-2.11733e-10
2.57516e-07
-2.08693e-10
2.57568e-07
-2.05486e-10
2.57618e-07
-2.02975e-10
2.57668e-07
-2.00259e-10
2.57718e-07
-1.98176e-10
2.57767e-07
-1.95906e-10
2.57815e-07
-1.94186e-10
2.57863e-07
-1.92335e-10
2.57911e-07
-1.90942e-10
2.57958e-07
-1.89489e-10
2.58005e-07
-1.88407e-10
2.58052e-07
-1.87324e-10
2.58099e-07
-1.86538e-10
2.58145e-07
-1.85778e-10
2.58192e-07
-1.8526e-10
2.58238e-07
-1.84753e-10
2.58284e-07
-1.84454e-10
2.5833e-07
-1.84111e-10
2.58376e-07
-1.83958e-10
2.58422e-07
-1.83677e-10
2.58468e-07
-1.83582e-10
2.58514e-07
-1.83265e-10
2.5856e-07
-1.83135e-10
2.58606e-07
-1.82699e-10
2.58651e-07
-1.82453e-10
2.58697e-07
-1.8184e-10
2.58742e-07
-1.8142e-10
2.58788e-07
-1.80607e-10
2.58833e-07
-1.79987e-10
2.58877e-07
-1.78986e-10
2.58922e-07
-1.78172e-10
2.58966e-07
-1.77024e-10
2.5901e-07
-1.76055e-10
2.59054e-07
-1.74822e-10
2.59097e-07
-1.73759e-10
2.5914e-07
-1.72511e-10
2.59183e-07
-1.71426e-10
2.59226e-07
-1.70231e-10
2.59268e-07
-1.69197e-10
2.5931e-07
-1.68111e-10
2.59351e-07
-1.67192e-10
2.59393e-07
-1.66254e-10
2.59434e-07
-1.655e-10
2.59475e-07
-1.64731e-10
2.59516e-07
-1.64169e-10
2.59556e-07
-1.63573e-10
2.59597e-07
-1.63211e-10
2.59637e-07
-1.6278e-10
2.59678e-07
-1.62605e-10
2.59718e-07
-1.62316e-10
2.59758e-07
-1.62299e-10
2.59799e-07
-1.6212e-10
2.59839e-07
-1.62215e-10
2.59879e-07
-1.62108e-10
2.59919e-07
-1.62258e-10
2.5996e-07
-1.62179e-10
2.6e-07
-1.62321e-10
2.6004e-07
-1.62222e-10
2.60081e-07
-1.62298e-10
2.60121e-07
-1.62134e-10
2.60161e-07
-1.6209e-10
2.60202e-07
-1.61824e-10
2.60242e-07
-1.61624e-10
2.60282e-07
-1.61228e-10
2.60322e-07
-1.60857e-10
2.60362e-07
-1.60316e-10
2.60402e-07
-1.59777e-10
2.60442e-07
-1.59089e-10
2.60482e-07
-1.58403e-10
2.60521e-07
-1.57575e-10
2.6056e-07
-1.56773e-10
2.60599e-07
-1.55819e-10
2.60638e-07
-1.54939e-10
2.60677e-07
-1.53881e-10
2.60715e-07
-1.52964e-10
2.60754e-07
-1.51833e-10
2.60792e-07
-1.5092e-10
2.60829e-07
-1.49764e-10
2.60867e-07
-1.48901e-10
2.60904e-07
-1.47781e-10
2.60941e-07
-1.47017e-10
2.60978e-07
-1.46002e-10
2.61014e-07
-1.45384e-10
2.61051e-07
-1.44544e-10
2.61087e-07
-1.44106e-10
2.61123e-07
-1.43487e-10
2.61159e-07
-1.4324e-10
2.61195e-07
-1.4285e-10
2.61231e-07
-1.42774e-10
2.61267e-07
-1.42572e-10
2.61302e-07
-1.42608e-10
2.61338e-07
-1.42512e-10
2.61374e-07
-1.42576e-10
2.6141e-07
-1.42478e-10
2.61446e-07
-1.42483e-10
2.61481e-07
-1.42286e-10
2.61517e-07
-1.42162e-10
2.61553e-07
-1.41809e-10
2.61588e-07
-1.41529e-10
2.61624e-07
-1.41028e-10
2.61659e-07
-1.40615e-10
2.61694e-07
-1.40041e-10
2.61729e-07
-1.39564e-10
2.61764e-07
-1.39041e-10
2.61798e-07
-1.38592e-10
2.61833e-07
-1.38261e-10
2.61868e-07
-1.37926e-10
2.61902e-07
-1.37897e-10
2.61937e-07
-1.3773e-10
2.61971e-07
-1.38051e-10
2.62006e-07
-1.38057e-10
2.6204e-07
-1.38695e-10
2.62075e-07
-1.38831e-10
2.6211e-07
-1.39674e-10
2.62145e-07
-1.39864e-10
2.6218e-07
-1.4075e-10
2.62215e-07
-1.40912e-10
2.62251e-07
-1.41661e-10
2.62286e-07
-1.41733e-10
2.62322e-07
-1.42189e-10
2.62357e-07
-1.42147e-10
-1.42206e-10
2.50005e-07
-2.34674e-11
2.50019e-07
-6.99732e-11
2.50043e-07
-1.16103e-10
2.50075e-07
-1.60448e-10
2.50116e-07
-2.03435e-10
2.50166e-07
-2.44218e-10
2.50223e-07
-2.82766e-10
2.50288e-07
-3.18992e-10
2.50359e-07
-3.52522e-10
2.50436e-07
-3.83863e-10
2.5052e-07
-4.12441e-10
2.50608e-07
-4.39024e-10
2.50701e-07
-4.63136e-10
2.50799e-07
-4.85355e-10
2.50901e-07
-5.05671e-10
2.51006e-07
-5.24048e-10
2.51115e-07
-5.41243e-10
2.51226e-07
-5.56337e-10
2.51341e-07
-5.70974e-10
2.51458e-07
-5.83334e-10
2.51577e-07
-5.95811e-10
2.51699e-07
-6.05945e-10
2.51822e-07
-6.16497e-10
2.51948e-07
-6.24834e-10
2.52075e-07
-6.33575e-10
2.52203e-07
-6.40432e-10
2.52333e-07
-6.47409e-10
2.52464e-07
-6.52965e-10
2.52595e-07
-6.58205e-10
2.52728e-07
-6.62495e-10
2.52862e-07
-6.66034e-10
2.52996e-07
-6.68967e-10
2.5313e-07
-6.70854e-10
2.53265e-07
-6.72256e-10
2.53399e-07
-6.72534e-10
2.53534e-07
-6.7221e-10
2.53669e-07
-6.70888e-10
2.53803e-07
-6.68677e-10
2.53936e-07
-6.65721e-10
2.54069e-07
-6.61533e-10
2.542e-07
-6.56874e-10
2.54331e-07
-6.50706e-10
2.5446e-07
-6.44274e-10
2.54587e-07
-6.36203e-10
2.54713e-07
-6.27969e-10
2.54837e-07
-6.1814e-10
2.54959e-07
-6.08162e-10
2.55079e-07
-5.96767e-10
2.55196e-07
-5.85212e-10
2.55311e-07
-5.72483e-10
2.55423e-07
-5.59624e-10
2.55532e-07
-5.45834e-10
2.55638e-07
-5.32027e-10
2.55742e-07
-5.17491e-10
2.55843e-07
-5.03133e-10
2.5594e-07
-4.88203e-10
2.56035e-07
-4.73695e-10
2.56127e-07
-4.58753e-10
2.56216e-07
-4.44468e-10
2.56301e-07
-4.29896e-10
2.56385e-07
-4.16161e-10
2.56465e-07
-4.02315e-10
2.56543e-07
-3.89406e-10
2.56618e-07
-3.7658e-10
2.56691e-07
-3.64716e-10
2.56761e-07
-3.53118e-10
2.56829e-07
-3.42459e-10
2.56896e-07
-3.32196e-10
2.5696e-07
-3.22838e-10
2.57022e-07
-3.13917e-10
2.57083e-07
-3.05881e-10
2.57143e-07
-2.98227e-10
2.57201e-07
-2.91464e-10
2.57258e-07
-2.84945e-10
2.57314e-07
-2.7934e-10
2.57368e-07
-2.738e-10
2.57422e-07
-2.69194e-10
2.57475e-07
-2.64482e-10
2.57527e-07
-2.60701e-10
2.57578e-07
-2.56692e-10
2.57628e-07
-2.53573e-10
2.57678e-07
-2.50179e-10
2.57728e-07
-2.47595e-10
2.57777e-07
-2.44762e-10
2.57825e-07
-2.42631e-10
2.57873e-07
-2.40328e-10
2.57921e-07
-2.38607e-10
2.57968e-07
-2.36808e-10
2.58015e-07
-2.35476e-10
2.58062e-07
-2.34144e-10
2.58109e-07
-2.33183e-10
2.58155e-07
-2.32257e-10
2.58201e-07
-2.31632e-10
2.58248e-07
-2.31022e-10
2.58294e-07
-2.30669e-10
2.5834e-07
-2.3026e-10
2.58386e-07
-2.30086e-10
2.58432e-07
-2.29749e-10
2.58478e-07
-2.29643e-10
2.58524e-07
-2.29252e-10
2.5857e-07
-2.29097e-10
2.58616e-07
-2.28548e-10
2.58662e-07
-2.28242e-10
2.58708e-07
-2.27463e-10
2.58753e-07
-2.26935e-10
2.58798e-07
-2.25898e-10
2.58843e-07
-2.25114e-10
2.58888e-07
-2.23837e-10
2.58933e-07
-2.22806e-10
2.58977e-07
-2.21343e-10
2.59021e-07
-2.20114e-10
2.59065e-07
-2.18543e-10
2.59108e-07
-2.17193e-10
2.59152e-07
-2.15603e-10
2.59194e-07
-2.14224e-10
2.59237e-07
-2.127e-10
2.59279e-07
-2.11383e-10
2.59321e-07
-2.09996e-10
2.59363e-07
-2.08822e-10
2.59404e-07
-2.0762e-10
2.59445e-07
-2.06651e-10
2.59486e-07
-2.0566e-10
2.59527e-07
-2.04931e-10
2.59567e-07
-2.04157e-10
2.59608e-07
-2.03681e-10
2.59648e-07
-2.03112e-10
2.59688e-07
-2.02873e-10
2.59729e-07
-2.02485e-10
2.59769e-07
-2.02447e-10
2.59809e-07
-2.02203e-10
2.59849e-07
-2.02312e-10
2.59889e-07
-2.02165e-10
2.59929e-07
-2.02351e-10
2.59969e-07
-2.02248e-10
2.60009e-07
-2.02435e-10
2.60049e-07
-2.02317e-10
2.60089e-07
-2.0243e-10
2.6013e-07
-2.02241e-10
2.6017e-07
-2.02214e-10
2.6021e-07
-2.01907e-10
2.6025e-07
-2.01693e-10
2.6029e-07
-2.01231e-10
2.6033e-07
-2.00809e-10
2.6037e-07
-2.00173e-10
2.60409e-07
-1.99545e-10
2.60449e-07
-1.98729e-10
2.60489e-07
-1.97919e-10
2.60528e-07
-1.96927e-10
2.60567e-07
-1.95972e-10
2.60606e-07
-1.94821e-10
2.60645e-07
-1.93766e-10
2.60684e-07
-1.92479e-10
2.60722e-07
-1.91371e-10
2.6076e-07
-1.89986e-10
2.60798e-07
-1.88876e-10
2.60836e-07
-1.87452e-10
2.60873e-07
-1.86396e-10
2.60911e-07
-1.85007e-10
2.60948e-07
-1.84066e-10
2.60984e-07
-1.82804e-10
2.61021e-07
-1.82038e-10
2.61057e-07
-1.80989e-10
2.61094e-07
-1.80445e-10
2.6113e-07
-1.79671e-10
2.61166e-07
-1.79364e-10
2.61202e-07
-1.78876e-10
2.61238e-07
-1.78782e-10
2.61274e-07
-1.7853e-10
2.6131e-07
-1.78575e-10
2.61346e-07
-1.78454e-10
2.61382e-07
-1.78534e-10
2.61418e-07
-1.78407e-10
2.61454e-07
-1.78408e-10
2.6149e-07
-1.78151e-10
2.61526e-07
-1.77986e-10
2.61561e-07
-1.77526e-10
2.61597e-07
-1.7716e-10
2.61632e-07
-1.76507e-10
2.61668e-07
-1.7597e-10
2.61703e-07
-1.75221e-10
2.61738e-07
-1.74602e-10
2.61773e-07
-1.73918e-10
2.61808e-07
-1.73336e-10
2.61842e-07
-1.72896e-10
2.61877e-07
-1.72461e-10
2.61911e-07
-1.72409e-10
2.61946e-07
-1.7219e-10
2.6198e-07
-1.72588e-10
2.62015e-07
-1.72591e-10
2.6205e-07
-1.73395e-10
2.62084e-07
-1.73564e-10
2.62119e-07
-1.74633e-10
2.62154e-07
-1.7487e-10
2.62189e-07
-1.75995e-10
2.62225e-07
-1.76195e-10
2.6226e-07
-1.77146e-10
2.62296e-07
-1.77229e-10
2.62331e-07
-1.77806e-10
2.62367e-07
-1.77743e-10
-1.77809e-10
2.50005e-07
-2.83161e-11
2.50019e-07
-8.43908e-11
2.50043e-07
-1.40015e-10
2.50076e-07
-1.9345e-10
2.50118e-07
-2.45211e-10
2.50168e-07
-2.94289e-10
2.50226e-07
-3.40617e-10
2.50291e-07
-3.84149e-10
2.50363e-07
-4.24362e-10
2.50441e-07
-4.61975e-10
2.50525e-07
-4.96188e-10
2.50614e-07
-5.28053e-10
2.50708e-07
-5.56883e-10
2.50806e-07
-5.83489e-10
2.50908e-07
-6.0777e-10
2.51013e-07
-6.2975e-10
2.51123e-07
-6.50312e-10
2.51235e-07
-6.68341e-10
2.51349e-07
-6.85867e-10
2.51467e-07
-7.00612e-10
2.51586e-07
-7.15575e-10
2.51708e-07
-7.27652e-10
2.51832e-07
-7.40324e-10
2.51957e-07
-7.5026e-10
2.52085e-07
-7.60763e-10
2.52213e-07
-7.68951e-10
2.52343e-07
-7.77327e-10
2.52474e-07
-7.83987e-10
2.52606e-07
-7.90264e-10
2.52739e-07
-7.95434e-10
2.52873e-07
-7.99659e-10
2.53007e-07
-8.03219e-10
2.53142e-07
-8.05459e-10
2.53276e-07
-8.07187e-10
2.53411e-07
-8.07502e-10
2.53546e-07
-8.07151e-10
2.53681e-07
-8.0556e-10
2.53815e-07
-8.02925e-10
2.53949e-07
-7.99387e-10
2.54082e-07
-7.94359e-10
2.54214e-07
-7.88785e-10
2.54344e-07
-7.81362e-10
2.54474e-07
-7.73658e-10
2.54601e-07
-7.63942e-10
2.54728e-07
-7.54063e-10
2.54852e-07
-7.42231e-10
2.54974e-07
-7.30242e-10
2.55094e-07
-7.16529e-10
2.55211e-07
-7.02628e-10
2.55326e-07
-6.87314e-10
2.55438e-07
-6.71834e-10
2.55547e-07
-6.55243e-10
2.55654e-07
-6.38619e-10
2.55758e-07
-6.21126e-10
2.55858e-07
-6.03841e-10
2.55956e-07
-5.85871e-10
2.56051e-07
-5.68412e-10
2.56142e-07
-5.50423e-10
2.56231e-07
-5.3324e-10
2.56317e-07
-5.15698e-10
2.564e-07
-4.99184e-10
2.5648e-07
-4.82523e-10
2.56558e-07
-4.67006e-10
2.56633e-07
-4.51583e-10
2.56705e-07
-4.37326e-10
2.56776e-07
-4.23393e-10
2.56844e-07
-4.10588e-10
2.5691e-07
-3.98272e-10
2.56974e-07
-3.87034e-10
2.57036e-07
-3.76339e-10
2.57097e-07
-3.66697e-10
2.57157e-07
-3.57527e-10
2.57215e-07
-3.49421e-10
2.57271e-07
-3.41612e-10
2.57327e-07
-3.34904e-10
2.57381e-07
-3.28266e-10
2.57435e-07
-3.22765e-10
2.57487e-07
-3.17115e-10
2.57539e-07
-3.12607e-10
2.5759e-07
-3.07799e-10
2.57641e-07
-3.04087e-10
2.57691e-07
-3.00017e-10
2.5774e-07
-2.96948e-10
2.57789e-07
-2.93556e-10
2.57837e-07
-2.91029e-10
2.57885e-07
-2.8828e-10
2.57933e-07
-2.86244e-10
2.5798e-07
-2.84108e-10
2.58027e-07
-2.8254e-10
2.58074e-07
-2.80972e-10
2.58121e-07
-2.79849e-10
2.58167e-07
-2.78771e-10
2.58214e-07
-2.7805e-10
2.5826e-07
-2.77351e-10
2.58306e-07
-2.76955e-10
2.58353e-07
-2.76491e-10
2.58399e-07
-2.76306e-10
2.58445e-07
-2.7592e-10
2.58491e-07
-2.75811e-10
2.58537e-07
-2.75349e-10
2.58583e-07
-2.75175e-10
2.58629e-07
-2.7451e-10
2.58675e-07
-2.74148e-10
2.58721e-07
-2.73196e-10
2.58767e-07
-2.72559e-10
2.58812e-07
-2.7129e-10
2.58857e-07
-2.7034e-10
2.58902e-07
-2.68776e-10
2.58947e-07
-2.67525e-10
2.58991e-07
-2.65735e-10
2.59035e-07
-2.64243e-10
2.59079e-07
-2.62324e-10
2.59123e-07
-2.60684e-10
2.59166e-07
-2.58743e-10
2.59209e-07
-2.57066e-10
2.59251e-07
-2.55207e-10
2.59293e-07
-2.53604e-10
2.59335e-07
-2.51908e-10
2.59377e-07
-2.50476e-10
2.59418e-07
-2.49002e-10
2.59459e-07
-2.47814e-10
2.595e-07
-2.46591e-10
2.59541e-07
-2.4569e-10
2.59582e-07
-2.44726e-10
2.59622e-07
-2.44126e-10
2.59662e-07
-2.43406e-10
2.59703e-07
-2.43091e-10
2.59743e-07
-2.42588e-10
2.59783e-07
-2.42517e-10
2.59823e-07
-2.42188e-10
2.59863e-07
-2.42297e-10
2.59903e-07
-2.4209e-10
2.59943e-07
-2.42299e-10
2.59983e-07
-2.42151e-10
2.60023e-07
-2.42371e-10
2.60062e-07
-2.42215e-10
2.60102e-07
-2.42356e-10
2.60142e-07
-2.42126e-10
2.60182e-07
-2.42109e-10
2.60222e-07
-2.41749e-10
2.60262e-07
-2.41519e-10
2.60302e-07
-2.40985e-10
2.60341e-07
-2.40513e-10
2.60381e-07
-2.3978e-10
2.6042e-07
-2.3907e-10
2.6046e-07
-2.38129e-10
2.60499e-07
-2.37206e-10
2.60538e-07
-2.36061e-10
2.60577e-07
-2.34967e-10
2.60616e-07
-2.33633e-10
2.60655e-07
-2.3242e-10
2.60693e-07
-2.30921e-10
2.60731e-07
-2.29643e-10
2.60769e-07
-2.28022e-10
2.60807e-07
-2.26736e-10
2.60845e-07
-2.25059e-10
2.60882e-07
-2.2383e-10
2.6092e-07
-2.22188e-10
2.60957e-07
-2.21088e-10
2.60993e-07
-2.1959e-10
2.6103e-07
-2.18693e-10
2.61066e-07
-2.17446e-10
2.61103e-07
-2.1681e-10
2.61139e-07
-2.15891e-10
2.61175e-07
-2.15537e-10
2.61211e-07
-2.14963e-10
2.61247e-07
-2.14862e-10
2.61283e-07
-2.14572e-10
2.61319e-07
-2.14638e-10
2.61356e-07
-2.14503e-10
2.61392e-07
-2.14607e-10
2.61428e-07
-2.1446e-10
2.61464e-07
-2.14464e-10
2.615e-07
-2.1415e-10
2.61536e-07
-2.13946e-10