/*--------------------------------*- C++ -*----------------------------------*\
| =========                 |                                                 |
| \\      /  F ield         | OpenFOAM: The Open Source CFD Toolbox           |
|  \\    /   O peration     | Version:  2412                                  |
|   \\  /    A nd           | Website:  www.openfoam.com                      |
|    \\/     M anipulation  |                                                 |
\*---------------------------------------------------------------------------*/
FoamFile
{
    version     2.0;
    format      ascii;
    arch        "LSB;label=32;scalar=64";
    class       volVectorField;
    location    "1000";
    object      U;
}
// * * * * * * * * * * * * * * * * * * * * * * * * * * * * * * * * * * * * * //

dimensions      [0 1 -1 0 0 0 0];

internalField   nonuniform List<vector> 
8000
(
(0.999984 -4.65005e-06 0)
(1.00005 -1.39002e-05 0)
(1.00009 -2.29777e-05 0)
(1.00024 -3.17456e-05 0)
(1.00035 -4.02712e-05 0)
(1.00056 -4.83704e-05 0)
(1.00074 -5.60501e-05 0)
(1.00101 -6.32698e-05 0)
(1.00124 -6.99821e-05 0)
(1.00157 -7.62484e-05 0)
(1.00185 -8.19935e-05 0)
(1.00222 -8.73235e-05 0)
(1.00255 -9.21847e-05 0)
(1.00296 -9.66516e-05 0)
(1.00332 -0.000100752 0)
(1.00377 -0.000104456 0)
(1.00416 -0.000107923 0)
(1.00463 -0.000110975 0)
(1.00505 -0.000113918 0)
(1.00554 -0.000116423 0)
(1.00598 -0.000118924 0)
(1.0065 -0.000120982 0)
(1.00695 -0.000123091 0)
(1.00748 -0.000124782 0)
(1.00795 -0.000126528 0)
(1.00849 -0.000127913 0)
(1.00897 -0.000129308 0)
(1.00953 -0.000130423 0)
(1.01001 -0.000131475 0)
(1.01058 -0.000132326 0)
(1.01107 -0.000133041 0)
(1.01164 -0.000133615 0)
(1.01214 -0.000134001 0)
(1.01272 -0.000134266 0)
(1.01321 -0.000134328 0)
(1.01379 -0.000134251 0)
(1.01429 -0.000133988 0)
(1.01486 -0.00013354 0)
(1.01536 -0.000132945 0)
(1.01593 -0.000132108 0)
(1.01641 -0.000131172 0)
(1.01698 -0.000129944 0)
(1.01745 -0.000128654 0)
(1.01801 -0.000127051 0)
(1.01847 -0.000125404 0)
(1.01901 -0.000123452 0)
(1.01946 -0.000121463 0)
(1.01998 -0.000119199 0)
(1.02041 -0.000116901 0)
(1.02092 -0.000114372 0)
(1.02132 -0.000111818 0)
(1.02181 -0.000109079 0)
(1.0222 -0.000106338 0)
(1.02266 -0.000103451 0)
(1.02302 -0.0001006 0)
(1.02347 -9.76358e-05 0)
(1.02381 -9.4753e-05 0)
(1.02423 -9.17867e-05 0)
(1.02454 -8.89456e-05 0)
(1.02494 -8.60519e-05 0)
(1.02523 -8.33178e-05 0)
(1.0256 -8.05655e-05 0)
(1.02587 -7.79936e-05 0)
(1.02623 -7.54401e-05 0)
(1.02648 -7.30746e-05 0)
(1.02681 -7.07607e-05 0)
(1.02704 -6.86338e-05 0)
(1.02736 -6.65814e-05 0)
(1.02757 -6.47119e-05 0)
(1.02788 -6.29244e-05 0)
(1.02808 -6.13166e-05 0)
(1.02837 -5.97811e-05 0)
(1.02855 -5.8425e-05 0)
(1.02884 -5.71172e-05 0)
(1.02901 -5.59901e-05 0)
(1.02929 -5.48801e-05 0)
(1.02945 -5.39508e-05 0)
(1.02972 -5.30084e-05 0)
(1.02987 -5.22426e-05 0)
(1.03014 -5.14418e-05 0)
(1.03028 -5.08074e-05 0)
(1.03054 -5.01289e-05 0)
(1.03069 -4.96008e-05 0)
(1.03094 -4.90319e-05 0)
(1.03108 -4.85934e-05 0)
(1.03133 -4.81266e-05 0)
(1.03146 -4.77691e-05 0)
(1.03171 -4.73988e-05 0)
(1.03184 -4.71183e-05 0)
(1.03209 -4.68379e-05 0)
(1.03222 -4.66312e-05 0)
(1.03246 -4.64302e-05 0)
(1.03259 -4.62908e-05 0)
(1.03283 -4.61534e-05 0)
(1.03296 -4.60697e-05 0)
(1.0332 -4.59754e-05 0)
(1.03332 -4.593e-05 0)
(1.03357 -4.58549e-05 0)
(1.03369 -4.58266e-05 0)
(1.03394 -4.5747e-05 0)
(1.03405 -4.57133e-05 0)
(1.0343 -4.56086e-05 0)
(1.03442 -4.55496e-05 0)
(1.03467 -4.54054e-05 0)
(1.03478 -4.53064e-05 0)
(1.03503 -4.51164e-05 0)
(1.03514 -4.49705e-05 0)
(1.03539 -4.47365e-05 0)
(1.0355 -4.4545e-05 0)
(1.03575 -4.42766e-05 0)
(1.03585 -4.40483e-05 0)
(1.0361 -4.37598e-05 0)
(1.0362 -4.35094e-05 0)
(1.03645 -4.32176e-05 0)
(1.03655 -4.29625e-05 0)
(1.03679 -4.26836e-05 0)
(1.03689 -4.24416e-05 0)
(1.03713 -4.21891e-05 0)
(1.03723 -4.19756e-05 0)
(1.03747 -4.17589e-05 0)
(1.03756 -4.15854e-05 0)
(1.0378 -4.14092e-05 0)
(1.03789 -4.12818e-05 0)
(1.03813 -4.11467e-05 0)
(1.03822 -4.10664e-05 0)
(1.03846 -4.0969e-05 0)
(1.03855 -4.09315e-05 0)
(1.03879 -4.08655e-05 0)
(1.03887 -4.0862e-05 0)
(1.03912 -4.08187e-05 0)
(1.0392 -4.0837e-05 0)
(1.03944 -4.08058e-05 0)
(1.03952 -4.08314e-05 0)
(1.03977 -4.08008e-05 0)
(1.03985 -4.08182e-05 0)
(1.0401 -4.07766e-05 0)
(1.04017 -4.07714e-05 0)
(1.04042 -4.07084e-05 0)
(1.0405 -4.06686e-05 0)
(1.04075 -4.05759e-05 0)
(1.04082 -4.04943e-05 0)
(1.04107 -4.03666e-05 0)
(1.04115 -4.02409e-05 0)
(1.0414 -4.00762e-05 0)
(1.04147 -3.9909e-05 0)
(1.04172 -3.97083e-05 0)
(1.04178 -3.95065e-05 0)
(1.04203 -3.92728e-05 0)
(1.0421 -3.90457e-05 0)
(1.04235 -3.87841e-05 0)
(1.04241 -3.8542e-05 0)
(1.04265 -3.82592e-05 0)
(1.04271 -3.80131e-05 0)
(1.04296 -3.77181e-05 0)
(1.04301 -3.74787e-05 0)
(1.04326 -3.71837e-05 0)
(1.04331 -3.69625e-05 0)
(1.04356 -3.66826e-05 0)
(1.0436 -3.64908e-05 0)
(1.04385 -3.62428e-05 0)
(1.04389 -3.60911e-05 0)
(1.04414 -3.58903e-05 0)
(1.04418 -3.5786e-05 0)
(1.04443 -3.56423e-05 0)
(1.04446 -3.55869e-05 0)
(1.04471 -3.55005e-05 0)
(1.04475 -3.54876e-05 0)
(1.045 -3.54473e-05 0)
(1.04503 -3.54621e-05 0)
(1.04528 -3.5447e-05 0)
(1.04531 -3.54689e-05 0)
(1.04557 -3.5453e-05 0)
(1.0456 -3.54606e-05 0)
(1.04585 -3.54206e-05 0)
(1.04588 -3.53973e-05 0)
(1.04613 -3.53199e-05 0)
(1.04616 -3.52589e-05 0)
(1.04642 -3.51466e-05 0)
(1.04644 -3.50531e-05 0)
(1.0467 -3.49242e-05 0)
(1.04672 -3.48143e-05 0)
(1.04698 -3.46986e-05 0)
(1.047 -3.45941e-05 0)
(1.04726 -3.45243e-05 0)
(1.04727 -3.44461e-05 0)
(1.04753 -3.44482e-05 0)
(1.04755 -3.44097e-05 0)
(1.04781 -3.44943e-05 0)
(1.04782 -3.44976e-05 0)
(1.04809 -3.46561e-05 0)
(1.0481 -3.46918e-05 0)
(1.04837 -3.48972e-05 0)
(1.04838 -3.49481e-05 0)
(1.04865 -3.51608e-05 0)
(1.04866 -3.52075e-05 0)
(1.04893 -3.53847e-05 0)
(1.04894 -3.54119e-05 0)
(1.04921 -3.55175e-05 0)
(1.04922 -3.55221e-05 0)
(1.0495 -3.55424e-05 0)
(0.999984 -1.39372e-05 0)
(1.00005 -4.16287e-05 0)
(1.0001 -6.89605e-05 0)
(1.00024 -9.53152e-05 0)
(1.00035 -0.000120919 0)
(1.00056 -0.000145236 0)
(1.00074 -0.000168287 0)
(1.00101 -0.000189953 0)
(1.00124 -0.00021009 0)
(1.00157 -0.000228888 0)
(1.00186 -0.000246118 0)
(1.00223 -0.000262102 0)
(1.00256 -0.000276677 0)
(1.00297 -0.00029007 0)
(1.00333 -0.000302362 0)
(1.00377 -0.000313467 0)
(1.00417 -0.00032386 0)
(1.00464 -0.000333007 0)
(1.00505 -0.00034183 0)
(1.00555 -0.000349342 0)
(1.00599 -0.000356839 0)
(1.0065 -0.000363008 0)
(1.00696 -0.000369332 0)
(1.00749 -0.000374404 0)
(1.00795 -0.000379638 0)
(1.0085 -0.000383793 0)
(1.00898 -0.000387977 0)
(1.00954 -0.000391319 0)
(1.01002 -0.000394474 0)
(1.01059 -0.000397025 0)
(1.01108 -0.000399172 0)
(1.01165 -0.000400889 0)
(1.01215 -0.000402047 0)
(1.01273 -0.000402841 0)
(1.01322 -0.000403026 0)
(1.0138 -0.000402794 0)
(1.0143 -0.000402006 0)
(1.01487 -0.000400661 0)
(1.01537 -0.000398877 0)
(1.01594 -0.000396368 0)
(1.01642 -0.000393554 0)
(1.01699 -0.000389875 0)
(1.01746 -0.000386001 0)
(1.01802 -0.000381192 0)
(1.01848 -0.00037625 0)
(1.01902 -0.000370391 0)
(1.01947 -0.000364422 0)
(1.01999 -0.000357624 0)
(1.02042 -0.000350729 0)
(1.02093 -0.000343133 0)
(1.02134 -0.000335471 0)
(1.02182 -0.000327242 0)
(1.02221 -0.000319017 0)
(1.02268 -0.000310347 0)
(1.02304 -0.000301791 0)
(1.02348 -0.000292892 0)
(1.02382 -0.000284238 0)
(1.02424 -0.000275335 0)
(1.02455 -0.000266806 0)
(1.02495 -0.000258123 0)
(1.02524 -0.000249916 0)
(1.02562 -0.000241658 0)
(1.02588 -0.00023394 0)
(1.02624 -0.000226278 0)
(1.02649 -0.000219182 0)
(1.02682 -0.000212239 0)
(1.02705 -0.00020586 0)
(1.02737 -0.000199701 0)
(1.02758 -0.000194095 0)
(1.02789 -0.00018873 0)
(1.02809 -0.000183908 0)
(1.02838 -0.0001793 0)
(1.02857 -0.000175232 0)
(1.02885 -0.000171307 0)
(1.02902 -0.000167926 0)
(1.0293 -0.000164595 0)
(1.02946 -0.000161807 0)
(1.02973 -0.000158979 0)
(1.02988 -0.000156682 0)
(1.03015 -0.000154281 0)
(1.03029 -0.000152381 0)
(1.03055 -0.000150347 0)
(1.0307 -0.000148768 0)
(1.03095 -0.000147064 0)
(1.03109 -0.000145757 0)
(1.03134 -0.00014436 0)
(1.03147 -0.000143297 0)
(1.03172 -0.000142192 0)
(1.03185 -0.000141359 0)
(1.0321 -0.000140524 0)
(1.03222 -0.000139912 0)
(1.03247 -0.000139314 0)
(1.0326 -0.000138901 0)
(1.03284 -0.000138493 0)
(1.03296 -0.000138245 0)
(1.03321 -0.000137963 0)
(1.03333 -0.000137827 0)
(1.03358 -0.000137601 0)
(1.0337 -0.000137514 0)
(1.03395 -0.000137271 0)
(1.03406 -0.000137166 0)
(1.03431 -0.000136845 0)
(1.03443 -0.000136663 0)
(1.03468 -0.000136222 0)
(1.03479 -0.000135919 0)
(1.03504 -0.00013534 0)
(1.03515 -0.000134896 0)
(1.0354 -0.000134184 0)
(1.03551 -0.000133604 0)
(1.03576 -0.000132789 0)
(1.03586 -0.000132098 0)
(1.03611 -0.000131223 0)
(1.03621 -0.000130467 0)
(1.03646 -0.000129583 0)
(1.03656 -0.000128813 0)
(1.0368 -0.000127968 0)
(1.0369 -0.000127238 0)
(1.03714 -0.000126474 0)
(1.03723 -0.00012583 0)
(1.03748 -0.000125174 0)
(1.03757 -0.00012465 0)
(1.03781 -0.000124117 0)
(1.0379 -0.000123732 0)
(1.03814 -0.000123324 0)
(1.03822 -0.000123081 0)
(1.03847 -0.000122787 0)
(1.03855 -0.000122674 0)
(1.03879 -0.000122476 0)
(1.03888 -0.000122467 0)
(1.03912 -0.000122338 0)
(1.0392 -0.000122397 0)
(1.03945 -0.000122306 0)
(1.03953 -0.000122389 0)
(1.03977 -0.000122301 0)
(1.03985 -0.000122362 0)
(1.0401 -0.000122243 0)
(1.04017 -0.000122238 0)
(1.04042 -0.000122057 0)
(1.0405 -0.00012195 0)
(1.04075 -0.000121681 0)
(1.04082 -0.000121449 0)
(1.04107 -0.000121076 0)
(1.04115 -0.000120712 0)
(1.0414 -0.000120228 0)
(1.04147 -0.000119739 0)
(1.04172 -0.000119147 0)
(1.04178 -0.000118554 0)
(1.04203 -0.000117864 0)
(1.0421 -0.000117194 0)
(1.04235 -0.000116419 0)
(1.04241 -0.000115703 0)
(1.04266 -0.000114863 0)
(1.04271 -0.000114134 0)
(1.04296 -0.000113257 0)
(1.04302 -0.000112546 0)
(1.04326 -0.000111666 0)
(1.04331 -0.000111008 0)
(1.04356 -0.00011017 0)
(1.04361 -0.000109599 0)
(1.04386 -0.000108854 0)
(1.0439 -0.000108401 0)
(1.04415 -0.000107793 0)
(1.04419 -0.000107481 0)
(1.04443 -0.000107041 0)
(1.04447 -0.000106874 0)
(1.04472 -0.000106604 0)
(1.04476 -0.000106563 0)
(1.04501 -0.000106431 0)
(1.04504 -0.000106472 0)
(1.04529 -0.000106416 0)
(1.04532 -0.000106478 0)
(1.04558 -0.000106421 0)
(1.04561 -0.00010644 0)
(1.04586 -0.000106313 0)
(1.04589 -0.00010624 0)
(1.04615 -0.000106004 0)
(1.04617 -0.000105819 0)
(1.04643 -0.000105479 0)
(1.04646 -0.000105199 0)
(1.04671 -0.000104811 0)
(1.04673 -0.000104484 0)
(1.04699 -0.000104135 0)
(1.04701 -0.000103826 0)
(1.04727 -0.000103615 0)
(1.04729 -0.000103385 0)
(1.04755 -0.000103388 0)
(1.04756 -0.000103276 0)
(1.04782 -0.000103526 0)
(1.04784 -0.000103536 0)
(1.0481 -0.000104008 0)
(1.04811 -0.00010411 0)
(1.04838 -0.000104725 0)
(1.04839 -0.000104866 0)
(1.04866 -0.000105506 0)
(1.04867 -0.000105627 0)
(1.04894 -0.000106165 0)
(1.04895 -0.000106224 0)
(1.04923 -0.000106551 0)
(1.04924 -0.000106535 0)
(1.04951 -0.000106594 0)
(0.999984 -2.32705e-05 0)
(1.00005 -6.94057e-05 0)
(1.0001 -0.000115123 0)
(1.00024 -0.000159138 0)
(1.00035 -0.000201866 0)
(1.00056 -0.000242439 0)
(1.00074 -0.00028088 0)
(1.00101 -0.000317008 0)
(1.00125 -0.000350564 0)
(1.00158 -0.000381895 0)
(1.00186 -0.000410587 0)
(1.00224 -0.000437217 0)
(1.00256 -0.000461477 0)
(1.00298 -0.000483781 0)
(1.00334 -0.000504237 0)
(1.00379 -0.000522724 0)
(1.00418 -0.000540022 0)
(1.00465 -0.000555242 0)
(1.00507 -0.000569935 0)
(1.00556 -0.000582428 0)
(1.006 -0.000594919 0)
(1.00652 -0.000605175 0)
(1.00697 -0.000615717 0)
(1.0075 -0.000624149 0)
(1.00797 -0.000632877 0)
(1.00852 -0.000639789 0)
(1.00899 -0.000646763 0)
(1.00955 -0.000652329 0)
(1.01004 -0.000657585 0)
(1.01061 -0.000661843 0)
(1.0111 -0.000665414 0)
(1.01167 -0.000668287 0)
(1.01217 -0.00067021 0)
(1.01274 -0.000671547 0)
(1.01324 -0.000671849 0)
(1.01382 -0.000671474 0)
(1.01432 -0.000670157 0)
(1.01489 -0.000667922 0)
(1.01539 -0.000664951 0)
(1.01596 -0.000660768 0)
(1.01644 -0.000656085 0)
(1.01701 -0.000649946 0)
(1.01749 -0.000643493 0)
(1.01804 -0.000635468 0)
(1.0185 -0.000627232 0)
(1.01904 -0.000617454 0)
(1.01949 -0.000607502 0)
(1.02002 -0.00059616 0)
(1.02045 -0.000584658 0)
(1.02095 -0.000571986 0)
(1.02136 -0.000559199 0)
(1.02185 -0.000545473 0)
(1.02223 -0.000531748 0)
(1.0227 -0.000517284 0)
(1.02306 -0.000503006 0)
(1.02351 -0.000488158 0)
(1.02384 -0.000473721 0)
(1.02426 -0.000458865 0)
(1.02458 -0.000444639 0)
(1.02497 -0.000430149 0)
(1.02526 -0.000416462 0)
(1.02564 -0.000402684 0)
(1.02591 -0.000389814 0)
(1.02626 -0.000377034 0)
(1.02651 -0.000365202 0)
(1.02685 -0.000353626 0)
(1.02708 -0.00034299 0)
(1.0274 -0.000332727 0)
(1.02761 -0.000323381 0)
(1.02791 -0.000314445 0)
(1.02811 -0.00030641 0)
(1.0284 -0.000298735 0)
(1.02859 -0.000291958 0)
(1.02887 -0.000285421 0)
(1.02904 -0.00027979 0)
(1.02932 -0.00027424 0)
(1.02948 -0.000269599 0)
(1.02975 -0.000264884 0)
(1.0299 -0.000261063 0)
(1.03017 -0.000257056 0)
(1.03031 -0.000253895 0)
(1.03057 -0.0002505 0)
(1.03071 -0.000247875 0)
(1.03097 -0.000245033 0)
(1.03111 -0.000242861 0)
(1.03136 -0.000240535 0)
(1.03149 -0.000238772 0)
(1.03174 -0.000236937 0)
(1.03187 -0.00023556 0)
(1.03212 -0.00023418 0)
(1.03224 -0.000233173 0)
(1.03249 -0.000232192 0)
(1.03261 -0.00023152 0)
(1.03286 -0.000230856 0)
(1.03298 -0.000230457 0)
(1.03323 -0.000230002 0)
(1.03335 -0.000229789 0)
(1.0336 -0.000229422 0)
(1.03372 -0.000229287 0)
(1.03397 -0.000228886 0)
(1.03409 -0.000228715 0)
(1.03433 -0.000228176 0)
(1.03445 -0.00022787 0)
(1.0347 -0.000227123 0)
(1.03481 -0.000226609 0)
(1.03506 -0.000225624 0)
(1.03517 -0.000224869 0)
(1.03542 -0.000223657 0)
(1.03553 -0.000222669 0)
(1.03578 -0.000221281 0)
(1.03589 -0.000220105 0)
(1.03613 -0.000218614 0)
(1.03623 -0.000217326 0)
(1.03648 -0.000215819 0)
(1.03658 -0.000214506 0)
(1.03682 -0.000213065 0)
(1.03692 -0.000211819 0)
(1.03716 -0.000210514 0)
(1.03725 -0.000209412 0)
(1.0375 -0.000208291 0)
(1.03759 -0.000207392 0)
(1.03783 -0.000206479 0)
(1.03791 -0.000205818 0)
(1.03815 -0.000205117 0)
(1.03824 -0.000204699 0)
(1.03848 -0.000204196 0)
(1.03856 -0.000204002 0)
(1.03881 -0.000203666 0)
(1.03889 -0.000203655 0)
(1.03913 -0.000203444 0)
(1.03921 -0.000203557 0)
(1.03945 -0.00020342 0)
(1.03953 -0.000203583 0)
(1.03978 -0.000203462 0)
(1.03986 -0.000203599 0)
(1.0401 -0.000203435 0)
(1.04018 -0.00020347 0)
(1.04043 -0.000203209 0)
(1.0405 -0.000203081 0)
(1.04075 -0.000202679 0)
(1.04083 -0.000202347 0)
(1.04108 -0.000201774 0)
(1.04115 -0.000201222 0)
(1.0414 -0.000200464 0)
(1.04147 -0.000199702 0)
(1.04172 -0.000198762 0)
(1.04179 -0.00019782 0)
(1.04204 -0.000196709 0)
(1.0421 -0.000195632 0)
(1.04235 -0.000194373 0)
(1.04241 -0.00019321 0)
(1.04266 -0.000191834 0)
(1.04272 -0.000190639 0)
(1.04297 -0.000189189 0)
(1.04303 -0.000188016 0)
(1.04327 -0.000186553 0)
(1.04333 -0.000185458 0)
(1.04357 -0.000184056 0)
(1.04362 -0.0001831 0)
(1.04387 -0.000181845 0)
(1.04391 -0.000181082 0)
(1.04416 -0.000180053 0)
(1.0442 -0.000179523 0)
(1.04445 -0.000178772 0)
(1.04449 -0.000178483 0)
(1.04474 -0.000178017 0)
(1.04477 -0.000177938 0)
(1.04502 -0.000177703 0)
(1.04506 -0.000177761 0)
(1.04531 -0.000177654 0)
(1.04534 -0.000177747 0)
(1.0456 -0.000177639 0)
(1.04563 -0.000177658 0)
(1.04588 -0.000177433 0)
(1.04591 -0.000177297 0)
(1.04617 -0.000176885 0)
(1.0462 -0.000176562 0)
(1.04645 -0.000175975 0)
(1.04648 -0.000175494 0)
(1.04673 -0.000174823 0)
(1.04676 -0.000174265 0)
(1.04701 -0.000173661 0)
(1.04703 -0.000173136 0)
(1.04729 -0.000172764 0)
(1.04731 -0.000172376 0)
(1.04757 -0.000172368 0)
(1.04759 -0.00017218 0)
(1.04785 -0.000172591 0)
(1.04786 -0.000172609 0)
(1.04812 -0.000173398 0)
(1.04814 -0.000173569 0)
(1.0484 -0.000174602 0)
(1.04841 -0.000174836 0)
(1.04868 -0.000175916 0)
(1.04869 -0.000176113 0)
(1.04897 -0.000177023 0)
(1.04898 -0.000177109 0)
(1.04925 -0.000177662 0)
(1.04926 -0.000177615 0)
(1.04954 -0.000177696 0)
(0.999984 -3.27056e-05 0)
(1.00005 -9.74171e-05 0)
(1.0001 -0.000161609 0)
(1.00024 -0.000223366 0)
(1.00035 -0.00028329 0)
(1.00057 -0.000340176 0)
(1.00075 -0.000394038 0)
(1.00102 -0.000444656 0)
(1.00126 -0.000491624 0)
(1.00159 -0.000535489 0)
(1.00187 -0.00057561 0)
(1.00225 -0.000612871 0)
(1.00258 -0.000646773 0)
(1.00299 -0.000677962 0)
(1.00336 -0.000706541 0)
(1.0038 -0.000732377 0)
(1.0042 -0.000756549 0)
(1.00467 -0.000777806 0)
(1.00509 -0.00079835 0)
(1.00559 -0.000815786 0)
(1.00602 -0.000833265 0)
(1.00654 -0.000847574 0)
(1.00699 -0.000862336 0)
(1.00753 -0.000874102 0)
(1.00799 -0.000886325 0)
(1.00854 -0.00089598 0)
(1.00902 -0.000905745 0)
(1.00958 -0.000913532 0)
(1.01006 -0.000920886 0)
(1.01063 -0.000926859 0)
(1.01112 -0.000931848 0)
(1.0117 -0.000935893 0)
(1.01219 -0.000938573 0)
(1.01277 -0.00094047 0)
(1.01327 -0.000940884 0)
(1.01385 -0.000940381 0)
(1.01435 -0.000938535 0)
(1.01492 -0.000935416 0)
(1.01542 -0.000931262 0)
(1.01599 -0.000925406 0)
(1.01648 -0.000918856 0)
(1.01704 -0.000910253 0)
(1.01752 -0.000901224 0)
(1.01807 -0.000889972 0)
(1.01854 -0.000878441 0)
(1.01908 -0.000864731 0)
(1.01953 -0.000850787 0)
(1.02005 -0.000834885 0)
(1.02048 -0.00081876 0)
(1.02099 -0.000800993 0)
(1.0214 -0.000783063 0)
(1.02189 -0.000763817 0)
(1.02227 -0.000744567 0)
(1.02274 -0.000724286 0)
(1.0231 -0.000704263 0)
(1.02354 -0.000683441 0)
(1.02388 -0.000663198 0)
(1.0243 -0.000642363 0)
(1.02461 -0.00062242 0)
(1.02501 -0.000602101 0)
(1.0253 -0.000582918 0)
(1.02568 -0.0005636 0)
(1.02594 -0.000545566 0)
(1.0263 -0.000527655 0)
(1.02655 -0.000511076 0)
(1.02688 -0.00049486 0)
(1.02711 -0.000479961 0)
(1.02743 -0.000465591 0)
(1.02764 -0.000452503 0)
(1.02795 -0.000439997 0)
(1.02814 -0.000428747 0)
(1.02844 -0.000418009 0)
(1.02862 -0.000408527 0)
(1.0289 -0.000399382 0)
(1.02907 -0.000391508 0)
(1.02935 -0.000383742 0)
(1.02951 -0.000377258 0)
(1.02978 -0.00037066 0)
(1.02993 -0.000365326 0)
(1.0302 -0.000359716 0)
(1.03034 -0.000355309 0)
(1.0306 -0.000350559 0)
(1.03074 -0.000346902 0)
(1.031 -0.000342929 0)
(1.03114 -0.000339907 0)
(1.03139 -0.000336662 0)
(1.03152 -0.000334213 0)
(1.03177 -0.000331659 0)
(1.0319 -0.000329753 0)
(1.03215 -0.000327841 0)
(1.03227 -0.000326451 0)
(1.03252 -0.000325101 0)
(1.03264 -0.000324178 0)
(1.03289 -0.00032327 0)
(1.03301 -0.00032273 0)
(1.03326 -0.000322111 0)
(1.03338 -0.000321827 0)
(1.03363 -0.000321323 0)
(1.03375 -0.000321143 0)
(1.034 -0.000320583 0)
(1.03412 -0.000320347 0)
(1.03436 -0.000319586 0)
(1.03448 -0.000319154 0)
(1.03473 -0.000318092 0)
(1.03484 -0.000317362 0)
(1.03509 -0.000315957 0)
(1.03521 -0.000314883 0)
(1.03545 -0.000313154 0)
(1.03556 -0.000311746 0)
(1.03581 -0.000309763 0)
(1.03592 -0.000308087 0)
(1.03616 -0.000305958 0)
(1.03627 -0.000304118 0)
(1.03651 -0.000301962 0)
(1.03661 -0.000300085 0)
(1.03685 -0.000298021 0)
(1.03695 -0.000296234 0)
(1.03719 -0.000294358 0)
(1.03729 -0.000292773 0)
(1.03753 -0.000291156 0)
(1.03762 -0.000289856 0)
(1.03786 -0.000288534 0)
(1.03794 -0.000287569 0)
(1.03818 -0.00028655 0)
(1.03827 -0.000285933 0)
(1.03851 -0.000285198 0)
(1.03859 -0.000284907 0)
(1.03883 -0.000284417 0)
(1.03891 -0.000284395 0)
(1.03915 -0.000284095 0)
(1.03923 -0.000284262 0)
(1.03948 -0.000284081 0)
(1.03956 -0.000284337 0)
(1.0398 -0.000284195 0)
(1.03988 -0.00028443 0)
(1.04012 -0.000284245 0)
(1.0402 -0.000284354 0)
(1.04045 -0.000284047 0)
(1.04052 -0.000283939 0)
(1.04077 -0.000283445 0)
(1.04084 -0.00028306 0)
(1.04109 -0.000282333 0)
(1.04116 -0.000281643 0)
(1.04141 -0.000280659 0)
(1.04148 -0.000279674 0)
(1.04173 -0.000278432 0)
(1.0418 -0.000277189 0)
(1.04205 -0.000275701 0)
(1.04212 -0.000274259 0)
(1.04237 -0.000272554 0)
(1.04243 -0.00027098 0)
(1.04268 -0.000269098 0)
(1.04274 -0.000267465 0)
(1.04299 -0.000265465 0)
(1.04304 -0.000263847 0)
(1.04329 -0.000261812 0)
(1.04334 -0.000260291 0)
(1.04359 -0.000258327 0)
(1.04364 -0.000256987 0)
(1.04389 -0.000255217 0)
(1.04393 -0.000254137 0)
(1.04418 -0.000252675 0)
(1.04422 -0.000251914 0)
(1.04447 -0.000250839 0)
(1.04451 -0.000250413 0)
(1.04476 -0.000249734 0)
(1.0448 -0.000249602 0)
(1.04505 -0.000249249 0)
(1.04508 -0.000249309 0)
(1.04534 -0.000249138 0)
(1.04537 -0.000249246 0)
(1.04562 -0.000249074 0)
(1.04566 -0.000249081 0)
(1.04591 -0.00024874 0)
(1.04594 -0.000248529 0)
(1.0462 -0.000247926 0)
(1.04623 -0.00024745 0)
(1.04648 -0.000246599 0)
(1.04651 -0.000245901 0)
(1.04676 -0.000244931 0)
(1.04679 -0.000244127 0)
(1.04704 -0.000243252 0)
(1.04707 -0.000242499 0)
(1.04732 -0.000241954 0)
(1.04734 -0.000241396 0)
(1.0476 -0.00024137 0)
(1.04762 -0.000241097 0)
(1.04788 -0.000241669 0)
(1.04789 -0.000241688 0)
(1.04816 -0.000242798 0)
(1.04817 -0.000243034 0)
(1.04843 -0.000244491 0)
(1.04845 -0.000244814 0)
(1.04872 -0.000246339 0)
(1.04873 -0.000246609 0)
(1.049 -0.000247894 0)
(1.04901 -0.000248006 0)
(1.04928 -0.000248783 0)
(1.04929 -0.000248701 0)
(1.04957 -0.000248796 0)
(0.999984 -4.2233e-05 0)
(1.00005 -0.000125691 0)
(1.0001 -0.000208514 0)
(1.00024 -0.000288157 0)
(1.00036 -0.000365394 0)
(1.00057 -0.000438687 0)
(1.00075 -0.000508019 0)
(1.00103 -0.000573169 0)
(1.00127 -0.000633536 0)
(1.0016 -0.000689941 0)
(1.00189 -0.000741441 0)
(1.00227 -0.000789313 0)
(1.0026 -0.000832789 0)
(1.00301 -0.00087283 0)
(1.00338 -0.000909467 0)
(1.00383 -0.000942607 0)
(1.00422 -0.000973606 0)
(1.0047 -0.00100085 0)
(1.00511 -0.00102722 0)
(1.00561 -0.00104954 0)
(1.00605 -0.001072 0)
(1.00657 -0.00109031 0)
(1.00702 -0.0011093 0)
(1.00756 -0.00112435 0)
(1.00802 -0.00114008 0)
(1.00857 -0.00115245 0)
(1.00905 -0.00116501 0)
(1.00961 -0.00117501 0)
(1.0101 -0.00118446 0)
(1.01067 -0.00119216 0)
(1.01116 -0.00119855 0)
(1.01173 -0.00120379 0)
(1.01223 -0.00120721 0)
(1.01281 -0.0012097 0)
(1.01331 -0.00121022 0)
(1.01389 -0.00120961 0)
(1.01439 -0.00120723 0)
(1.01496 -0.00120324 0)
(1.01546 -0.0011979 0)
(1.01603 -0.00119037 0)
(1.01652 -0.00118197 0)
(1.01708 -0.00117088 0)
(1.01756 -0.00115929 0)
(1.01812 -0.00114479 0)
(1.01858 -0.00112997 0)
(1.01912 -0.0011123 0)
(1.01957 -0.00109435 0)
(1.0201 -0.00107387 0)
(1.02053 -0.0010531 0)
(1.02104 -0.00103021 0)
(1.02145 -0.0010071 0)
(1.02193 -0.000982313 0)
(1.02232 -0.000957503 0)
(1.02279 -0.000931374 0)
(1.02315 -0.00090557 0)
(1.02359 -0.000878739 0)
(1.02393 -0.00085266 0)
(1.02435 -0.000825809 0)
(1.02466 -0.000800124 0)
(1.02506 -0.000773938 0)
(1.02535 -0.000749239 0)
(1.02573 -0.000724352 0)
(1.02599 -0.000701136 0)
(1.02635 -0.000678073 0)
(1.02659 -0.000656736 0)
(1.02693 -0.000635869 0)
(1.02716 -0.000616698 0)
(1.02748 -0.000598222 0)
(1.02769 -0.000581385 0)
(1.02799 -0.000565318 0)
(1.02819 -0.000550854 0)
(1.02848 -0.000537065 0)
(1.02866 -0.000524884 0)
(1.02895 -0.00051314 0)
(1.02912 -0.000503036 0)
(1.02939 -0.000493059 0)
(1.02955 -0.000484749 0)
(1.02982 -0.000476267 0)
(1.02998 -0.000469439 0)
(1.03024 -0.000462225 0)
(1.03038 -0.000456589 0)
(1.03064 -0.00045048 0)
(1.03078 -0.000445809 0)
(1.03104 -0.000440705 0)
(1.03117 -0.00043685 0)
(1.03143 -0.000432692 0)
(1.03156 -0.000429574 0)
(1.03181 -0.000426316 0)
(1.03194 -0.000423898 0)
(1.03218 -0.000421474 0)
(1.03231 -0.000419722 0)
(1.03256 -0.000418026 0)
(1.03268 -0.000416877 0)
(1.03293 -0.00041575 0)
(1.03305 -0.000415091 0)
(1.0333 -0.00041433 0)
(1.03342 -0.000413996 0)
(1.03367 -0.000413373 0)
(1.03379 -0.000413164 0)
(1.03404 -0.000412455 0)
(1.03416 -0.000412166 0)
(1.03441 -0.000411181 0)
(1.03452 -0.000410628 0)
(1.03477 -0.000409241 0)
(1.03489 -0.000408293 0)
(1.03514 -0.000406451 0)
(1.03525 -0.00040505 0)
(1.0355 -0.00040278 0)
(1.03561 -0.00040094 0)
(1.03586 -0.000398338 0)
(1.03596 -0.000396145 0)
(1.03621 -0.000393348 0)
(1.03631 -0.000390939 0)
(1.03656 -0.000388107 0)
(1.03666 -0.000385646 0)
(1.0369 -0.000382931 0)
(1.037 -0.000380582 0)
(1.03724 -0.00037811 0)
(1.03733 -0.00037602 0)
(1.03757 -0.000373881 0)
(1.03766 -0.000372158 0)
(1.0379 -0.0003704 0)
(1.03799 -0.000369112 0)
(1.03823 -0.000367747 0)
(1.03831 -0.000366912 0)
(1.03855 -0.000365918 0)
(1.03863 -0.00036551 0)
(1.03887 -0.000364842 0)
(1.03895 -0.000364794 0)
(1.0392 -0.000364382 0)
(1.03927 -0.000364593 0)
(1.03952 -0.000364351 0)
(1.03959 -0.000364696 0)
(1.03984 -0.000364523 0)
(1.03991 -0.000364861 0)
(1.04016 -0.000364653 0)
(1.04023 -0.000364847 0)
(1.04048 -0.000364501 0)
(1.04056 -0.000364433 0)
(1.0408 -0.000363863 0)
(1.04088 -0.000363451 0)
(1.04112 -0.000362594 0)
(1.04119 -0.000361799 0)
(1.04144 -0.00036062 0)
(1.04151 -0.000359449 0)
(1.04176 -0.00035794 0)
(1.04183 -0.000356437 0)
(1.04208 -0.000354609 0)
(1.04214 -0.000352844 0)
(1.04239 -0.000350728 0)
(1.04246 -0.000348783 0)
(1.0427 -0.000346427 0)
(1.04276 -0.000344391 0)
(1.04301 -0.000341867 0)
(1.04307 -0.000339835 0)
(1.04332 -0.000337247 0)
(1.04337 -0.000335322 0)
(1.04362 -0.000332809 0)
(1.04367 -0.000331101 0)
(1.04391 -0.000328823 0)
(1.04396 -0.000327438 0)
(1.04421 -0.000325548 0)
(1.04425 -0.000324565 0)
(1.0445 -0.000323169 0)
(1.04454 -0.000322613 0)
(1.04479 -0.000321728 0)
(1.04483 -0.000321549 0)
(1.04508 -0.000321085 0)
(1.04511 -0.000321153 0)
(1.04537 -0.000320922 0)
(1.0454 -0.000321052 0)
(1.04565 -0.000320815 0)
(1.04569 -0.000320808 0)
(1.04594 -0.000320347 0)
(1.04597 -0.000320052 0)
(1.04623 -0.000319241 0)
(1.04626 -0.0003186 0)
(1.04652 -0.000317458 0)
(1.04654 -0.000316525 0)
(1.0468 -0.000315224 0)
(1.04682 -0.000314153 0)
(1.04708 -0.000312975 0)
(1.0471 -0.000311972 0)
(1.04736 -0.000311228 0)
(1.04738 -0.000310484 0)
(1.04764 -0.000310423 0)
(1.04765 -0.000310057 0)
(1.04791 -0.000310783 0)
(1.04793 -0.000310802 0)
(1.04819 -0.000312239 0)
(1.0482 -0.000312542 0)
(1.04847 -0.000314439 0)
(1.04848 -0.000314854 0)
(1.04875 -0.000316843 0)
(1.04876 -0.000317185 0)
(1.04904 -0.000318861 0)
(1.04905 -0.000318995 0)
(1.04932 -0.000320004 0)
(1.04933 -0.000319881 0)
(1.04961 -0.000319987 0)
(0.999984 -5.18767e-05 0)
(1.00005 -0.000154318 0)
(1.0001 -0.000255994 0)
(1.00025 -0.000353703 0)
(1.00036 -0.000448398 0)
(1.00058 -0.000538209 0)
(1.00076 -0.000623065 0)
(1.00104 -0.000702795 0)
(1.00128 -0.000776543 0)
(1.00162 -0.000845487 0)
(1.00191 -0.000908299 0)
(1.00229 -0.000966753 0)
(1.00262 -0.00101972 0)
(1.00304 -0.00106856 0)
(1.00341 -0.00111318 0)
(1.00386 -0.00115356 0)
(1.00425 -0.00119133 0)
(1.00473 -0.00122448 0)
(1.00515 -0.00125665 0)
(1.00565 -0.00128379 0)
(1.00609 -0.00131122 0)
(1.00661 -0.00133346 0)
(1.00706 -0.00135668 0)
(1.0076 -0.00137497 0)
(1.00806 -0.00139421 0)
(1.00861 -0.00140927 0)
(1.00909 -0.00142463 0)
(1.00965 -0.00143684 0)
(1.01014 -0.00144837 0)
(1.01071 -0.00145781 0)
(1.0112 -0.0014656 0)
(1.01178 -0.00147207 0)
(1.01228 -0.00147621 0)
(1.01286 -0.00147933 0)
(1.01336 -0.00147992 0)
(1.01394 -0.00147924 0)
(1.01443 -0.00147632 0)
(1.01501 -0.00147148 0)
(1.01551 -0.00146497 0)
(1.01608 -0.00145576 0)
(1.01657 -0.00144552 0)
(1.01714 -0.00143194 0)
(1.01762 -0.00141779 0)
(1.01817 -0.00140001 0)
(1.01864 -0.0013819 0)
(1.01918 -0.00136025 0)
(1.01963 -0.00133829 0)
(1.02016 -0.00131318 0)
(1.02059 -0.00128774 0)
(1.0211 -0.0012597 0)
(1.02151 -0.00123138 0)
(1.022 -0.00120101 0)
(1.02238 -0.00117059 0)
(1.02285 -0.00113857 0)
(1.02321 -0.00110694 0)
(1.02365 -0.00107406 0)
(1.02399 -0.0010421 0)
(1.02441 -0.00100919 0)
(1.02473 -0.000977728 0)
(1.02512 -0.000945631 0)
(1.02541 -0.00091539 0)
(1.02579 -0.000884895 0)
(1.02605 -0.000856477 0)
(1.02641 -0.000828237 0)
(1.02665 -0.000802124 0)
(1.02699 -0.000776596 0)
(1.02722 -0.000753139 0)
(1.02753 -0.000730557 0)
(1.02774 -0.000709965 0)
(1.02805 -0.000690344 0)
(1.02824 -0.000672665 0)
(1.02854 -0.000655835 0)
(1.02872 -0.000640961 0)
(1.029 -0.00062663 0)
(1.02917 -0.000614309 0)
(1.02944 -0.000602131 0)
(1.02961 -0.000592014 0)
(1.02987 -0.000581655 0)
(1.03003 -0.000573356 0)
(1.03029 -0.000564543 0)
(1.03044 -0.000557705 0)
(1.03069 -0.000550244 0)
(1.03083 -0.000544587 0)
(1.03109 -0.000538362 0)
(1.03122 -0.000533702 0)
(1.03148 -0.000528646 0)
(1.03161 -0.000524886 0)
(1.03186 -0.000520944 0)
(1.03199 -0.000518039 0)
(1.03223 -0.000515128 0)
(1.03236 -0.000513038 0)
(1.03261 -0.000511021 0)
(1.03273 -0.000509666 0)
(1.03298 -0.000508343 0)
(1.0331 -0.000507583 0)
(1.03335 -0.000506698 0)
(1.03347 -0.000506329 0)
(1.03372 -0.000505598 0)
(1.03384 -0.000505373 0)
(1.03409 -0.000504517 0)
(1.03421 -0.000504182 0)
(1.03446 -0.00050297 0)
(1.03458 -0.0005023 0)
(1.03483 -0.000500576 0)
(1.03494 -0.000499412 0)
(1.03519 -0.000497117 0)
(1.0353 -0.000495386 0)
(1.03555 -0.000492558 0)
(1.03566 -0.000490283 0)
(1.03591 -0.000487042 0)
(1.03602 -0.000484328 0)
(1.03626 -0.000480847 0)
(1.03637 -0.000477863 0)
(1.03661 -0.00047434 0)
(1.03671 -0.000471287 0)
(1.03696 -0.000467907 0)
(1.03705 -0.000464988 0)
(1.03729 -0.000461905 0)
(1.03739 -0.000459299 0)
(1.03763 -0.000456621 0)
(1.03772 -0.000454462 0)
(1.03796 -0.000452248 0)
(1.03804 -0.000450617 0)
(1.03828 -0.00044888 0)
(1.03837 -0.000447804 0)
(1.03861 -0.00044652 0)
(1.03869 -0.000445969 0)
(1.03893 -0.000445085 0)
(1.03901 -0.000444981 0)
(1.03925 -0.000444419 0)
(1.03933 -0.000444645 0)
(1.03957 -0.000444302 0)
(1.03965 -0.000444707 0)
(1.03989 -0.000444468 0)
(1.03997 -0.000444884 0)
(1.04021 -0.000444622 0)
(1.04029 -0.000444883 0)
(1.04053 -0.000444475 0)
(1.04061 -0.000444437 0)
(1.04085 -0.000443777 0)
(1.04092 -0.000443337 0)
(1.04117 -0.000442347 0)
(1.04124 -0.000441454 0)
(1.04149 -0.000440087 0)
(1.04156 -0.000438747 0)
(1.04181 -0.000436988 0)
(1.04187 -0.00043525 0)
(1.04212 -0.000433108 0)
(1.04218 -0.000431052 0)
(1.04243 -0.000428558 0)
(1.04249 -0.00042628 0)
(1.04274 -0.000423486 0)
(1.0428 -0.000421088 0)
(1.04305 -0.000418075 0)
(1.04311 -0.000415669 0)
(1.04335 -0.000412562 0)
(1.04341 -0.00041027 0)
(1.04365 -0.000407237 0)
(1.0437 -0.000405193 0)
(1.04395 -0.000402432 0)
(1.044 -0.000400767 0)
(1.04424 -0.000398471 0)
(1.04429 -0.000397287 0)
(1.04454 -0.000395589 0)
(1.04458 -0.000394922 0)
(1.04483 -0.000393849 0)
(1.04486 -0.00039364 0)
(1.04512 -0.000393082 0)
(1.04515 -0.000393173 0)
(1.0454 -0.000392897 0)
(1.04544 -0.000393057 0)
(1.04569 -0.000392765 0)
(1.04573 -0.000392751 0)
(1.04598 -0.000392169 0)
(1.04602 -0.000391791 0)
(1.04627 -0.000390762 0)